"mz","rt","H2O_Mix1_150_450.mzXML","H2O_Mix10_150_450.mzXML","H2O_Mix11_150_450.mzXML","H2O_Mix12_150_450.mzXML","H2O_Mix2_150_450.mzXML","H2O_Mix3_150_450.mzXML","H2O_Mix4_150_450.mzXML","H2O_Mix5_150_450.mzXML","H2O_Mix6_150_450.mzXML","H2O_Mix7_150_450.mzXML","H2O_Mix8_150_450.mzXML","H2O_Mix9_150_450.mzXML","MeOH_2.mzXML","SampleID","ID","SMILES","Adducts","LOGP","formula","mserror","db"
214.063181559245,2.13646666666667,100,100,100,3402.14208984375,100,1908.5966796875,6267487,100,100,100,100,11309.3427734375,100,7,"774","NCC(CC(O)=O)C1=CC=C(Cl)C=C1","[M+H]+","0;0.0379999999999999","C10H12ClNO2","1.12237538118359","STD"
216.042612711589,1.06249833333333,903995.6875,9780.615234375,6366.15869140625,4695.63720703125,100,4576.36376953125,3399.81469726562,4052.94580078125,2367.22338867188,2689.49291992188,2906.18310546875,8725.48046875,3016.22827148438,1,"707","NC(CC1=CC(Cl)=C(O)C=C1)C(O)=O","[M+H]+","0;-2.134","C9H10ClNO3","1.88301550271939","STD"
217.129547119141,0.507163333333333,100,31746484,100,100,100,100,100,7794.27978515625,18886.90625,100,100,13888.359375,100,2,"158","CC(=O)N[C@@H](CCCNC(N)=N)C(O)=O","[M+H]+","0;-2.648","C8H16N4O3","0.100028491161053","STD"
218.08457438151,2.61883333333333,100,6961.86669921875,100,100,8655177,100,100,100,100,100,100,100,100,5,"111","C[C@H](CS)C(=O)N1CCC[C@H]1C(O)=O","[M+H]+","0;0.638","C9H15NO3S","0.116383793156939","STD"
218.113779703776,0.47501,100,100,100,100,100,100,100,100,100,2819995.25,15840.5390625,100,100,10,"258","CC(N)C(=O)NC(CCC(N)=O)C(O)=O","[M+H]+","0;-4.379","C8H15N3O4","1.09440025442715","STD"
218.138565063477,0.647751666666667,100,4181.41845703125,2200.982421875,2416.34130859375,100,3205.60302734375,100,100,47132964,8444.791015625,100,1827.47790527344,4402.50537109375,9,"353","CCC(=O)OC(CC([O-])=O)C[N+](C)(C)C","[M+H]+","0;-0.748","C10H19NO4","-0.586950422825389","STD"
219.113006591797,1.98428333333333,100,12498365,100,100,13182.5908203125,6068.65673828125,178017.984375,33393.8203125,119318.9375,18803.26171875,97891.8828125,3581.00854492188,100,2,"172","CC(=O)NCCC1=CNC2=C1C=C(O)C=C2","[M+H]+","0;0.642","C12H14N2O2","0.884894055329131","STD"
219.174260457357,7.03706666666667,315600.53125,379133.25,409878.25,386655.65625,330401.25,114452360,408093.15625,379384.5625,376242.65625,388473.1875,393613.9375,357906.5,641434.6875,6,"342","CC1CC(=O)C=C2CCC(CC12C)C(C)=C","[M+H]+","0;3.754","C15H22O","-0.409914206143687","STD"
219.174184163411,4.69368333333333,144210.8125,166828.59375,980402.1875,133714.46875,167182.375,114452360,142093.8125,163640.734375,203016.9375,206832.5,176035.53125,166615.125,182736.4375,6,"342","CC1CC(=O)C=C2CCC(CC12C)C(C)=C","[M+H]+","0;3.754","C15H22O","-0.758011668259528","STD"
220.118189493815,1.37399166666667,4398.01171875,1676894.375,1287.37829589844,31007.908203125,2854.28100585938,2558.13549804688,100,2103.67529296875,5101691.5,2493.84545898438,39588.7109375,2183.95727539062,2500.43920898438,9,"191","CC(C)(CO)C(O)C(=O)NCCC(O)=O","[M+H]+","0;-1.343","C9H17NO5","1.05304252925805","STD"
220.133112589518,2.50316666666667,7239.5205078125,4491.16748046875,3045.77709960938,2663.5205078125,4268.5107421875,4638.083984375,7990361.5,3031.65161132812,3075.7216796875,3810.56127929688,4882.43017578125,3481.8642578125,2655.77270507812,7,"875","OC(=O)C(C1CCCCN1)C1=CC=CC=C1","[M+H]+","0;1.988","C13H17NO2","-0.459769458642727","STD"
221.092112223307,0.783215,100,111085.84375,42802.7578125,11137.0234375,18714.705078125,7334852.5,7788.50927734375,100,1811.88793945312,30137.716796875,30725.328125,6785388.5,1799.00317382812,6,"659","N[C@@H](CC1=CNC2=C1C=C(O)C=C2)C(O)=O","[M+H]+","0;-2.315","C11H12N2O3","0.15795817699281","STD"
222.995630900065,1.328085,134176.03125,3570.16088867188,3096.88037109375,47691.53515625,63110.5859375,4611451,16453.31640625,16085.099609375,6203.92333984375,3587.18823242188,3123.11962890625,2849.98120117188,5351.51611328125,6,"169","CC(=O)NC1=NN=C(S1)S(N)(=O)=O","[M+H]+","0;-0.981","C4H6N4O3S2","0.961454106232801","STD"
223.075098673503,4.21071666666667,52090.78515625,11743.0400390625,15238.5986328125,20521.02734375,14591.591796875,13070.318359375,258079056,82583.5390625,28652.619140625,15480.9501953125,13523.33203125,13565.341796875,21193.16015625,7,"833","O=C1C=C(OC2=CC=CC=C12)C1=CC=CC=C1","[M+H]+","0;2.225","C15H10O2","-1.19209404632362","STD"
223.107782999674,1.77823333333333,6994.12451171875,100,2410.7978515625,100,3500.81469726562,100,7598791.5,2663.78173828125,100,1479.57287597656,118797.703125,2617.83837890625,1835.98376464844,7,"709","NC(CC1=CC=CC=C1)C(=O)NCC(O)=O","[M+H]+","0;-2.403","C11H14N2O3","0.249653657260304","STD"
224.091771443685,2.6123,2465.52416992188,4135.8466796875,2240.49365234375,2604.103515625,58016.5625,71452.953125,4702.3740234375,3117.0126953125,5109.30517578125,3205.33911132812,3294.31665039062,15410563,3197.14453125,12,"156","CC(=O)N[C@@H](CC1=CC=C(O)C=C1)C(O)=O","[M+H]+","0;-0.269","C11H13NO4","0.127374980424527","STD"
225.090957641602,3.97926666666667,81750416,25566.611328125,386837.0625,18507.03515625,32325.95703125,12870.923828125,21114.8984375,63035.19140625,31352.431640625,7173.37255859375,9441.1748046875,14392.73046875,6617.7021484375,1,"1022","OC1=CC=C(\C=C/C(=O)C2=CC=CC=C2)C=C1","[M+H]+","0;2.035","C15H12O2","-0.253046140129377","STD"
225.148595174154,4.03098333333333,114769.53125,498084.34375,16962458,117277.640625,73741.9921875,66897.15625,116466.796875,180053.34375,136128.640625,70976.6328125,58252.48828125,123140.75,106076.5546875,3,"275","CC\C=C/C[C@@H]1[C@@H](CC(=O)OC)CCC1=O","[M+H]+","0;2.139","C13H20O3","0.291692488449575","STD"
226.093419392904,0.625493333333333,10386650,100,100,100,100,100,210966.421875,41424.6953125,100,100,100,100,100,1,"745","NC1=NC(=O)C2=C(N1)N(COCCO)C=N2","[M+H]+","0;-0.336","C8H11N5O3","-0.242409072133249","STD"
227.066492716471,1.31831833333333,1448094.625,2136.5556640625,100,1624.55908203125,100,100,100,100,100,100,100,100,100,1,"652","N[C@@H](CC1=CC=C(O)C(=C1)[N+]([O-])=O)C(O)=O","[M+H]+","0;-1.636","C9H10N2O5","1.04073687044878","STD"
227.114084879557,0.45671,100,24463.955078125,100,100,100,100,100,100,100,146101.9375,100,100,100,10,"779","NCCC(=O)N[C@@H](CC1=CN=CN1)C(O)=O","[M+H]+","0;-4.099","C9H14N4O3","0.922794185643121","STD"
228.097671508789,0.520916666666667,34287.61328125,100,10470.60546875,100,100,496403.71875,100,100,100,100,100,16483.681640625,100,6,"752","NC1=NC(=O)N(C=C1)[C@H]1C[C@H](O)[C@@H](CO)O1","[M+H]+","0;-1.592","C9H13N3O4","-0.96183012109351","STD"
229.086171468099,2.98873333333333,14329678,33317.90234375,10388.291015625,10585.130859375,8752.4609375,5042764.5,9408.2958984375,33122.109375,29710.888671875,5749.7001953125,57790.3828125,32775.11328125,46181.55078125,1,"1024","OC1=CC=C(\C=C\C2=CC(O)=CC(O)=C2)C=C1","[M+H]+","0;2.048","C14H12O3","1.05754134974656","STD"
229.179967244466,4.49196666666667,29779.826171875,22718.859375,33013.234375,22343.419921875,29418.86328125,52101.6640625,22171.9609375,11345.6240234375,24692.2109375,23708.259765625,20340556,26095.57421875,20938.564453125,11,"201","CC(C)[C@@H]1CC[C@@H](C)C[C@H]1OC(=O)C(C)O","[M+H]+","0;3.44","C13H24O3","0.600595539213717","STD"
230.055140177409,1.74358333333333,100,100,18164.609375,2008.69458007812,2478.0771484375,100,27257738,28398.6015625,24809.583984375,7068.4970703125,4457.24365234375,2956.63525390625,3256.90478515625,7,"720","NC(N)=NC(=O)C1=C(N)N=C(N)C(Cl)=N1","[M+H]+","0;-1.436","C6H8ClN7O","-0.132240431535126","STD"
231.158869425456,4.32993333333333,183219.765625,11468738,188425.609375,22860050,32607.037109375,59477.015625,14596.5341796875,38217.22265625,86791.6953125,132145.28125,1029449.375,63930.22265625,46685.76953125,4,"248;491;947","CC(C)OC(=O)CCCCC(=O)OC(C)C;CCCOC(=O)CCCCC(=O)OCCC;OC(=O)CCCCCCCCCCC(O)=O","[M+H]+;[M+H]+;[M+H]+","0;2.414;2.21;3.42","C12H22O4;C12H22O4;C12H22O4","-0.972381222304694;-0.972381222304694;-0.972381222304694","STD;STD;STD"
233.128382364909,2.85595,100,4205.45068359375,289647.34375,1424.4873046875,16135.740234375,100,105507.75,100,100,77974168,499056.75,3117.9921875,100,10,"621","COC1=CC=C2NC=C(CCNC(C)=O)C2=C1","[M+H]+","0;0.963","C13H16N2O2","-0.345024875115363","STD"
236.175765991211,0.871613333333333,100,10254.18359375,100,100,100,100,43253632,21554.234375,2522.08764648438,100,100,100,100,7,"494","CCN(CC)CCNC(=O)C1=CC=C(N)C=C1","[M+H]+","0;0.346","C13H21N3O","0.0791411046281727","STD"
237.101933797201,3.58383333333333,56207.62109375,100,44140.01953125,2468.47045898438,100,2985.85864257812,100,22979.37109375,2353525.5,6562.7587890625,89485.734375,4550.47998046875,7320.5087890625,9,"704","NC(=O)N1C2=CC=CC=C2C=CC2=CC=CC=C12","[M+H]+","0;0.792","C15H12N2O","-1.32518024615636","STD"
237.123407999674,1.81435,100,207511.765625,2026.67492675781,100,100,100,4551.91162109375,100,17596698,28980.486328125,90707.6640625,5954.4130859375,100,9,"257","CC(N)C(=O)NC(CC1=CC=CC=C1)C(O)=O","[M+H]+","0;-1.877","C12H16N2O3","0.129045353350099","STD"
239.069900512695,4.61323333333333,41705.0078125,53660.04296875,9691.140625,13212.9931640625,11087.40234375,11067.0107421875,80089096,3135.96264648438,13250.5224609375,8458758,486823.875,193336.359375,5680.23486328125,7,"1015","OC1=C(OC2=CC=CC=C2C1=O)C1=CC=CC=C1","[M+H]+","0;2.573","C15H10O3","-1.58400243685828","STD"
239.091237386068,3.25431666666667,8572.1806640625,21634.921875,12642.3203125,8272.8232421875,7534337.5,50461.0703125,9786.216796875,6541.87841796875,9817.4697265625,8655.6171875,7804.3125,10432.3017578125,9261.140625,5,"601","COC1=CC(\C=C\C(O)=O)=CC(OC)=C1OC","[M+H]+","0;1.073","C12H14O5","-0.716102914803084","STD"
239.102767944336,0.845528333333333,100,6435.0966796875,100,1705.455078125,100,17433.95703125,38133.9609375,100,100,2350140.5,100,4895.5654296875,100,10,"771","NCC(=O)NC(CC1=CC=C(O)C=C1)C(O)=O","[M+H]+","0;-3.539","C11H14N2O4","0.527155486592881","STD"
240.114868164062,3.0448,100,100,38604.03515625,24930.3125,100,42721.27734375,100,1228078.375,129475.921875,2162.4716796875,100,100,100,8,"260","CC(NC(C)(C)C)C(=O)C1=CC(Cl)=CC=C1","[M+H]+","0;2.3","C13H18ClNO","-0.452849666640086","STD"
240.159144083659,2.07393333333333,8560.4833984375,7046.0048828125,38444.6328125,44985.953125,12139.6279296875,27904.216796875,4370.50634765625,29938770,36137.80078125,52340.203125,55529.0703125,49657.21484375,50584.8046875,8,"188","CC(C)(C)NCC(O)C1=CC(CO)=C(O)C=C1","[M+H]+","0;0.469","C13H21NO3","-1.18428278919957","STD"
241.031331380208,0.45671,25980.162109375,61793.125,3108.96484375,3595.1455078125,57567.91015625,4995.98193359375,9168.763671875,15080.751953125,20290.3203125,673211.9375,11524.3076171875,34624.953125,2885.765625,10,"673","N[C@@H](CSSC[C@H](N)C(O)=O)C(O)=O","[M+H]+","0;-3.312","C6H12N2O4S2","0.821802737719292","STD"
241.129582722982,0.474176666666667,100,2729369,4248.9853515625,100,100,100,100,100,100,100,100,100,100,2,"546","CN1C=NC=C1C[C@H](NC(=O)CCN)C(O)=O","[M+H]+","0;-3.795","C10H16N4O3","0.237726874283459","STD"
242.116989135742,3.8954,100,119446.59375,3506.31079101562,32694.06640625,4450.22509765625,2996.83837890625,100,28053.25390625,2138.54150390625,1590.85949707031,19194.390625,3717.06518554688,100,2,"285","CC1=C(C)C(NC2=CC=CC=C2C(O)=O)=CC=C1","[M+H]+","0;2.429","C15H15NO2","-2.37308525961587","STD"
242.117329915365,4.79365,5468.79931640625,16019.0908203125,3506.31079101562,32694.06640625,2193.44702148438,27038678,36366.87109375,43154.32421875,6237.76123046875,100,19194.390625,100,4806.3251953125,6,"285","CC1=C(C)C(NC2=CC=CC=C2C(O)=O)=CC=C1","[M+H]+","0;2.429","C15H15NO2","-0.965584062488066","STD"
243.101491292318,3.44483333333333,10076.66015625,4746.8017578125,14195.921875,41416.18359375,9403.828125,17044.720703125,100,15975.1240234375,2856.10009765625,25929.421875,9011607,8680.583984375,3566.25756835938,11,"1026","OC1=CC=C(C=C1)[C@H]1COC2=CC(O)=CC=C2C1","[M+H]+","0;1.182","C15H14O3","-0.362020329581285","STD"
244.092870076497,0.504936666666667,100,10554.5185546875,10917.072265625,3460.271484375,100,9946285,100,100,100,494859.1875,4091.7099609375,2710.96020507812,100,6,"749","NC1=NC(=O)N(C=C1)[C@@H]1O[C@H](CO)[C@@H](O)[C@H]1O","[M+H]+","0;-2.193","C9H13N3O5","0.264557080204592","STD"
244.132904052734,3.8954,100,204138640,28643.111328125,54176.95703125,20955.11328125,9737.9052734375,39970.69140625,400578.375,3230.79638671875,3644.70166015625,144519.625,7286.2158203125,3860.52661132812,2,"632","COC1=CC2=C(C=CC=C2CCNC(C)=O)C=C1","[M+H]+","0;1.709","C15H17NO2","-1.26876492619166","STD"
245.08821105957,0.526425,100,100,100,100,100,100896.828125,139037.359375,100,100,3504.6640625,100,100,100,7,"699","NC(=O)C1=NN(C=N1)[C@@H]1O[C@H](CO)[C@@H](O)[C@H]1O","[M+H]+","0;-2.433","C8H12N4O5","0.638788660297666","STD"
245.095540364583,2.36461666666667,15191.4091796875,2094.62939453125,100,100,100,100,100,100,12434967,100,1980.30700683594,2874.8603515625,100,9,"75","[H][C@]12CS[C@@H](CCCCC(O)=O)[C@@]1([H])NC(=O)N2","[M+H]+","0;0.463","C10H16N2O3S","0.376443336593565","STD"
245.174519856771,4.04335,208711.921875,27915040,22729.984375,94076.0390625,29052.85546875,32339.1328125,68728.5703125,52499.66015625,132994.8125,8386411.5,17103.87109375,114167.65625,18314.890625,2,"948","OC(=O)CCCCCCCCCCCC(O)=O","[M+H]+","0;3.989","C13H24O4","-0.915442718549929","STD"
247.107935587565,2.7727,100,16565.626953125,100,100,5512613.5,4185.90234375,40854.41796875,215741.3125,100,148509.28125,2528.98608398438,100,100,5,"2","[H][C@@](CC1=CNC2=CC=CC=C12)(N=C(C)O)C(O)=O","[M+H]+","0;0.599","C13H14N2O3","0.84290115781491","STD"
249.069137573242,2.07393333333333,100,100,100,100,100,100,19782.3828125,19625452,10530.2958984375,2152.162109375,100,100,4159.35693359375,8,"739","NC1=CC=C(C=C1)S(=O)(=O)C1=CC=C(N)C=C1","[M+H]+","0;-0.49","C12H12N2O2S","-0.384338095661899","STD"
252.109079996745,0.672356666666667,19497.34765625,100,2220.05200195312,100,100,20927078,100,100,15562.509765625,100,64292.34375,100,100,6,"757","NC1=NC=NC2=C1N=CN2[C@H]1C[C@H](O)[C@@H](CO)O1","[M+H]+","0;-1.766","C10H13N5O3","-0.175730501200625","STD"
253.093139648438,0.683751666666667,100,2239.82861328125,100,100,100,100,100,100,100,100,169558.71875,15388.0390625,100,11,"998","OC[C@H]1O[C@H](C[C@@H]1O)N1C=NC2=C1N=CNC2=O","[M+H]+","0;-1.346","C10H12N4O4","-0.000993950193988724","STD"
253.096918741862,3.46326666666667,12018415,3284.30859375,2375.44921875,100,3524.48217773438,11871.287109375,100,8354163.5,77251.0546875,2502.97216796875,100,12806.2080078125,2259.1015625,1,"843","O=C1NC(=O)C(N1)(C1=CC=CC=C1)C1=CC=CC=C1","[M+H]+","0;1.417","C15H12N2O2","-0.963497063528871","STD"
253.122807820638,1.43257333333333,100,100,100,100,100,100,22898878,100,100,100,100,100,100,7,"135;832","C\N=C(\NCCSCC1=C(C)NC=N1)NC#N;O=C(OCCC1=CC=CC=C1)\C=C\C1=CC=CC=C1","[M+H]+;[M+H]+","0;1.025;3.88","C10H16N6S;C17H16O2","-0.760023814785703;1.9477527222643","STD;STD"
254.114562988281,2.55355,100,2578.08081054688,100,100,147879808,114012.1328125,30678.103515625,12396.26171875,9352.1787109375,4427.0048828125,100,2964.548828125,4480.43212890625,5,"753","NC1=NC(N)=C2N=C(C(N)=NC2=N1)C1=CC=CC=C1","[M+H]+","0;-1.459","C12H11N7","-1.24121858782839","STD"
254.124750773112,0.618355,100,2238.27563476562,2266.54541015625,100,100,100,100,100,100,8169170.5,100,100,100,10,"744","NC1=NC(=O)C2=C(N1)N(CCC(CO)CO)C=N2","[M+H]+","0;-0.402","C10H15N5O3","-0.0929735806561098","STD"
255.064834594727,3.32635,82762.9296875,45518.578125,8299.8232421875,3859.67578125,7396.53271484375,28261.12109375,17045.619140625,5610.2314453125,3635.806640625,4939.24755859375,677571.6875,128051952,9219.3955078125,12,"1018;1031","OC1=CC(O)=C2C(=O)C=C(OC2=C1)C1=CC=CC=C1;OC1=CC=C(C=C1)C1=COC2=C(C=CC(O)=C2)C1=O","[M+H]+;[M+H]+","0;1.852;1.124","C15H10O4;C15H10O4","-1.40829006706816;-1.40829006706816","STD;STD"
255.10117594401,3.90176666666667,173945.703125,11924.5146484375,11745.240234375,23085.0546875,8914.80078125,6057.8095703125,100,80469968,97514.5078125,17812.302734375,25950.48046875,13392.423828125,28857.546875,8,"184","CC(C(O)=O)C1=CC(=CC=C1)C(=O)C1=CC=CC=C1","[M+H]+","0;1.651","C16H14O3","-1.58116084137774","STD"
256.096415201823,3.72286666666667,100,100,100,33389.46484375,9567.87109375,100,22917.283203125,65664708,12793.2607421875,100,6966.57763671875,4639.376953125,100,8,"913","OC(=O)C1CCN2C1=CC=C2C(=O)C1=CC=CC=C1","[M+H]+","0;1.411","C15H13NO3","-1.61305724129142","STD"
256.103810628255,0.572348333333333,5755.27587890625,100,100,100,100,100,5217835,100,100,100,100,100,100,7,"765","NC1=NC2=C(N=CN2COC(CO)CO)C(=O)N1","[M+H]+","0;-2.322","C9H13N5O4","-0.891325062408535","STD"
256.169291178385,3.47881666666667,74621424,44711.08203125,5433.77392578125,43823.94140625,57266.1953125,11342.05859375,16516.076171875,12306.912109375,2552.31884765625,170398.765625,2112.04125976562,100,4822.5302734375,1,"531","CN(C)CCOC(C1=CC=CC=C1)C1=CC=CC=C1","[M+H]+","0;1.922","C17H21NO","-1.20280465153772","STD"
257.080403645833,3.7076,8346.8994140625,7193.51904296875,7253.013671875,11306.9267578125,10298.2900390625,20876.201171875,12250.794921875,4721895.5,13780.8310546875,4158.162109375,152651.5625,5416.26953125,2961.03198242188,8,"1023","OC1=CC=C(\C=C\C(=O)C2=C(O)C=C(O)C=C2)C=C1","[M+H]+","0;1.669","C15H12O4","-1.71251546522528","STD"
258.110290527344,0.475863333333333,100,100,100,100,100,100,29813.205078125,100,3935323.75,2838500.75,100,100,100,9,"120","C[N+](C)(C)CCOP([O-])(=O)OC[C@@H](O)CO","[M+H]+","0;-2.928","C8H20NO6P","0.703681142005383","STD"
259.096374511719,3.91618333333333,11790.23046875,109734.25,13669.666015625,268775.78125,1759735.125,4532.5419921875,43388.875,59397.359375,4451.5107421875,18121.037109375,19004.4921875,7530.47412109375,5885.83984375,5,"178","CC(=O)OC1=CC(C)=C(OC(C)=O)C2=CC=CC=C12","[M+H]+","0;1.937","C15H14O4","-0.460787154063875","STD"
259.190358479818,4.24186666666667,443356.5625,13931086,1638607.875,122343.75,234171.171875,152114,35073.65234375,98876.59375,3761035,15559984,201874.3125,115024,131203.59375,10,"949","OC(=O)CCCCCCCCCCCCC(O)=O","[M+H]+","0;4.558","C14H26O4","-0.138200287421287","STD"
260.164225260417,3.31678333333333,9788.5205078125,161627.3125,2827.42651367188,179814.125,3656.51928710938,2571.5126953125,222945552,83346.921875,20973.74609375,7966.705078125,5829.04150390625,11962.1552734375,12333.65625,7,"246","CC(C)NCC(O)COC1=CC=CC2=CC=CC=C12","[M+H]+","0;2.023","C16H21NO2","-1.10945147316576","STD"
265.118092854818,2.10755,100,100,100,16888.552734375,100,100,83963.7109375,5805073,100,8524.634765625,100,100,100,8,"700","NC(=O)CC[C@H](NC(=O)CC1=CC=CC=C1)C(O)=O","[M+H]+","0;-0.302","C13H16N2O4","-0.751156512383936","STD"
265.118743896484,2.78506666666667,100,100,100,16888.552734375,100,100,83963.7109375,17730.919921875,100,220122.078125,100,100,100,10,"700","NC(=O)CC[C@H](NC(=O)CC1=CC=CC=C1)C(O)=O","[M+H]+","0;-0.302","C13H16N2O4","1.70450597857853","STD"
265.143300374349,4.18228333333333,50415.7890625,33594.25,33773.16015625,45077.95703125,39414.95703125,40197.33203125,54904.5234375,21102040,38215.1875,79260.4375,37562.13671875,37036.52734375,29087.2265625,8,"859","OC(=O)\C=C(/C)\C=C\[C@@]1(O)C(C)=CC(=O)CC1(C)C","[M+H]+","0;0.878","C15H20O4","-0.542067820635275","STD"
267.12397257487,3.0302,45181.33203125,35616.21484375,41465.3359375,59707.5,36303.13671875,19766.51953125,26251.48828125,28032.798828125,269363.40625,65184080,37228.265625,25099.50390625,33543.703125,10,"303","CC1=C2NC(=O)C3=C(N=CC=C3)N(C3CC3)C2=NC=C1","[M+H]+","0;0.515","C15H14N4O","-0.275247216973394","STD"
267.170064290365,1.39937833333333,34071.05859375,37319.03125,100,5606.63134765625,100,100,51109520,2229.982421875,100,7616.841796875,100,100,100,7,"245","CC(C)NCC(O)COC1=CC=C(CC(N)=O)C=C1","[M+H]+","0;-0.465","C14H22N2O3","-0.985550666625673","STD"
268.074717203776,2.5386,100,100,100,100,52200664,100,100,100,100,100,5491.14111328125,100,100,5,"338","CC1=NOC(NS(=O)(=O)C2=CC=C(N)C=C2)=C1C","[M+H]+","0;0.548","C11H13N3O3S","-1.23023994001496","STD"