"mz","rt","H2O_Mix1_150_450.mzXML","H2O_Mix10_150_450.mzXML","H2O_Mix11_150_450.mzXML","H2O_Mix12_150_450.mzXML","H2O_Mix2_150_450.mzXML","H2O_Mix3_150_450.mzXML","H2O_Mix4_150_450.mzXML","H2O_Mix5_150_450.mzXML","H2O_Mix6_150_450.mzXML","H2O_Mix7_150_450.mzXML","H2O_Mix8_150_450.mzXML","H2O_Mix9_150_450.mzXML","MeOH_2.mzXML","SampleID","ID","SMILES","Adducts","LOGP","formula","mserror","db"
319.10307820638,4.16971666666667,18333.080078125,191424.96875,45367.7421875,8133.98779296875,38695.1640625,31455744,159333.03125,66517.6796875,128903.6484375,303478.4375,4704.67138671875,6380.8515625,6607.36279296875,6,"529","CN(C)CCCN1C2=CC=CC=C2SC2=C1C=C(Cl)C=C2","[M+H]+","0;3.026","C17H19ClN2S","0.144800796850544","STD"
324.058990478516,0.52295,11997.591796875,2657629,3964.8369140625,100,100,100,100,100,100,26684.228515625,100,165846.25,100,2,"751","NC1=NC(=O)N(C=C1)[C@@H]1O[C@H](COP(O)(O)=O)[C@@H](O)[C@H]1O","[M+H]+","0;-3.851","C9H14N3O8P","-0.449058622818653","STD"
324.137145996094,3.89705,100,100,100,4739.056640625,100,100,286621024,51793.359375,16828.775390625,5582.12939453125,100,4150.46728515625,10206.6875,7,"312","CC1=CC=C(C=C1)S(=O)(=O)NC(=O)NN1CC2CCCC2C1","[M+H]+","0;1.717","C15H21N3O3S","-1.54627111453546","STD"
325.170501708984,3.32625,100,100,3590.68481445312,100,100,100,100,210767600,148408.046875,18583.7890625,10462.66796875,5476.5234375,34135.171875,8,"527","CN(C)CCCC1(OCC2=C1C=CC(=C2)C#N)C1=CC=C(F)C=C1","[M+H]+","0;0.863","C20H21FN2O","-1.76766039048461","STD"
330.059356689453,0.633436666666667,100,100,100,100,100,35266.078125,100,100,716085.9375,35931.01953125,100,18846.48828125,100,9,"754","NC1=NC=NC2=C1N=CN2[C@@H]1O[C@@H]2COP(O)(=O)O[C@H]2[C@H]1O","[M+H]+","0;-3.436","C10H12N5O6P","-1.35736357086532","STD"
330.149495442708,3.69203333333333,100,100,100,100,100,100,269664.21875,278521.0625,235622.3125,100,13870.5712890625,146249.265625,100,8,"645","FC1=CC=C(C=C1)[C@@H]1CCNC[C@H]1COC1=CC2=C(OCO2)C=C1","[M+H]+","0;2.003","C19H20FNO3","-1.54856299665856","STD"
332.069203694661,3.57611666666667,28904.869140625,32275.8359375,29679.646484375,24449.033203125,14740.84765625,13205.7490234375,140832656,2231116.75,499410.34375,115351.5703125,66383.6171875,51689.59375,160640.390625,7,"541","CN1C(C(=O)NC2=NC=CC=C2)=C(O)C2=C(C=CC=C2)S1(=O)=O","[M+H]+","0;0.432","C15H13N3O4S","-2.28237165794818","STD"
332.120890299479,0.968235,100,100,100,100,100,100,100,36321228,12715.6728515625,3241.52612304688,100,100,3129.27954101562,8,"538","CN\C(NCCSCC1=CSC(CN(C)C)=N1)=C/[N+]([O-])=O","[M+H]+","0;1.104","C12H21N5O2S2","-0.183669629775543","STD"
335.063598632812,0.521568333333333,9018.962890625,100,15274.173828125,16936.01953125,40145.88671875,38625.8125,31686.0234375,31801.07421875,26600.765625,100,8423.599609375,413142.9375,100,12,"693","NC(=O)C1=CC=C[N+](=C1)[C@@H]1O[C@H](COP(O)([O-])=O)[C@@H](O)[C@H]1O","[M+H]+","0;-3.254","C11H15N2O8P","-0.860634187617719","STD"
337.070231119792,4.73321666666667,34610.46875,100,100,27143.791015625,14045934,143218,57561.9296875,16189.009765625,36562.5390625,7268.92333984375,207290.578125,100,100,5,"1011","OC1=C(CC2=C(O)C3=C(OC2=O)C=CC=C3)C(=O)OC2=C1C=CC=C2","[M+H]+","0;1.525","C19H12O6","-1.31124070643197","STD"
337.211547851562,2.69095,100,36699.60546875,100,100,100,100,227632.46875,100,100,100,100,100,100,7,"373","CCCC(=O)NC1=CC(C(C)=O)=C(OCC(O)CNC(C)C)C=C1","[M+H]+","0;1.077","C18H28N2O4","-1.91140677756359","STD"
338.052022298177,1.30312,100,100,100,100,100,100,100,943655.1875,10684.419921875,100,18760.787109375,5957.6162109375,100,8,"721","NC(N)=NC1=NC(CSCCC(N)=NS(N)(=O)=O)=CS1","[M+H]+","0;-1.791","C8H15N7O2S3","-0.584234999309092","STD"
341.087117513021,1.77618333333333,100,100,100,100,5237864,100,100,100,100,100,100,4200.10546875,100,5,"1068","OCC1OC(OC2=C(O)C=C3OC(=O)C=CC3=C2)C(O)C(O)C1O","[M+H]+","0;-0.925","C15H16O9","1.17393182095216","STD"
341.210683186849,4.11286666666667,11454.0009765625,20790.35546875,16727.970703125,22397.607421875,264931.875,10851.7734375,77352144,1120704.625,12872.7685546875,18166.869140625,20806.59765625,12545.6684570312,9576.6923828125,7,"40","[H][C@@]12CC[C@@]3(CCC(=O)O3)[C@@]1(C)CC[C@@]1([H])[C@@]2([H])C=CC2=CC(=O)CC[C@]12C","[M+H]+","0;4.229","C22H28O3","-1.30890729107748","STD"
342.147979736328,1.254475,100,100,100,100,100,100,100,99705048,25915.71875,9047.96484375,2998.11791992188,3022.55932617188,3232.36254882812,8,"498","CCN1CCCC1CNC(=O)C1=C(OC)C=CC(=C1)S(N)(=O)=O","[M+H]+","0;-0.388","C15H23N3O4S","-0.678547545943229","STD"
343.123606363932,2.5308,100,100,100,1219995.5,50117.53125,4247.21337890625,4044.7783203125,5246.20458984375,100,5192.3134765625,100,135946.375,100,4,"968;982;986;987;992;1001;1002","OC[C@@H](O)[C@@H](O)[C@H](O[C@H]1O[C@H](CO)[C@@H](O)[C@H](O)[C@H]1O)C(=O)CO;OC[C@H]1O[C@@](CO)(O[C@H]2O[C@H](CO)[C@@H](O)[C@H](O)[C@H]2O)[C@@H](O)[C@@H]1O;OC[C@H]1O[C@@H](O[C@H]2[C@H](O)[C@@H](O)[C@@H](O)O[C@@H]2CO)[C@H](O)[C@@H](O)[C@H]1O;OC[C@H]1O[C@@H](O[C@H]2[C@H](O)[C@@H](O)[C@H](O)O[C@@H]2CO)[C@H](O)[C@@H](O)[C@@H]1O;OC[C@H]1O[C@](O)(CO)[C@@H](O)[C@@H]1O[C@@H]1O[C@H](CO)[C@H](O)[C@H](O)[C@H]1O;OC[C@H]1O[C@H](O[C@H]2[C@H](O)[C@H](O)[C@@H](O)O[C@@H]2CO)[C@H](O)[C@@H](O)[C@@H]1O;OC[C@H]1O[C@H](O[C@H]2O[C@H](CO)[C@@H](O)[C@H](O)[C@H]2O)[C@H](O)[C@@H](O)[C@@H]1O","[M+H]+;[M+H]+;[M+H]+;[M+H]+;[M+H]+;[M+H]+;[M+H]+","0;-4.947;-3.277;-3.663;-3.663;-3.706;-3.663;-3.234","C12H22O11;C12H22O11;C12H22O11;C12H22O11;C12H22O11;C12H22O11;C12H22O11","0.320187623261306;0.320187623261306;0.320187623261306;0.320187623261306;0.320187623261306;0.320187623261306;0.320187623261306","STD;STD;STD;STD;STD;STD;STD"
345.241923014323,4.3818,25362.111328125,9643.4736328125,20163.5390625,22121.51171875,21465.1640625,164767072,28366.55859375,161319.34375,14210.9521484375,15949.6044921875,10798.0390625,10446.9287109375,9930.6240234375,6,"45","[H][C@@]12CC[C@](O)(C(C)=O)[C@@]1(C)CC[C@@]1([H])[C@@]2([H])C[C@H](C)C2=CC(=O)CC[C@]12C","[M+H]+","0;3.539","C22H32O3","-1.46820430324584","STD"
347.123168945312,3.81333333333333,100,100,3341.84204101562,6705.23193359375,100,100,3298985.75,33540470,4893.7880859375,21220.4765625,237083.609375,30781.056640625,4529.046875,8,"571","COC(=O)C1=C(C)NC(C)=C(C1C1=CC=CC=C1[N+]([O-])=O)C(=O)OC","[M+H]+","0;2.59","C17H18N2O6","-1.73527652983042","STD"
347.221476236979,3.86671666666667,36147.6328125,11703.61328125,17748.470703125,52018.0546875,21337.490234375,74451904,93735.1796875,14229.47265625,28604.37109375,34524.140625,13242.458984375,12966.7119140625,14331.56640625,6,"24","[H][C@@]1(CC[C@@]2([H])[C@]3([H])CCC4=CC(=O)CC[C@]4(C)[C@@]3([H])[C@@]([H])(O)C[C@]12C)C(=O)CO","[M+H]+","0;1.704","C21H30O4","-0.628310850387299","STD"
352.041463216146,3.9121,101638.046875,5931.85400390625,15858.2587890625,16123.552734375,100,10074.20703125,183355456,722108.3125,153895.625,48382.12109375,29769.7578125,25149.888671875,75097.6796875,7,"540","CN1C(C(=O)NC2=NC=C(C)S2)=C(O)C2=C(C=CC=C2)S1(=O)=O","[M+H]+","0;0.593","C14H13N3O4S2","-1.61652507863237","STD"
355.102549235026,2.66521666666667,22731.751953125,10132.599609375,100,29120.369140625,100,100,100,100,100,2623.84790039062,125144.6171875,100,100,11,"811","O[C@@H]1C[C@](O)(C[C@@H](OC(=O)\C=C\C2=CC(O)=C(O)C=C2)[C@@H]1O)C(O)=O","[M+H]+","0;-0.968","C16H18O9","0.512626638183871","STD"
355.102752685547,2.07631666666667,100,333775.46875,3417.64770507812,29120.369140625,34851.8671875,100,100,100,100,2623.84790039062,125144.6171875,7657.93701171875,100,2,"811","O[C@@H]1C[C@](O)(C[C@@H](OC(=O)\C=C\C2=CC(O)=C(O)C=C2)[C@@H]1O)C(O)=O","[M+H]+","0;-0.968","C16H18O9","1.08556057111488","STD"
357.094919840495,3.89705,80882.125,2971.74096679688,26912.623046875,2355.52685546875,100,100,210761.640625,28899.751953125,100,100,154287.09375,19287.626953125,100,7,"291","CC1=C(CC(O)=O)C2=CC(F)=CC=C2\C1=C/C1=CC=C(C=C1)S(C)=O","[M+H]+","0;1.297","C20H17FO3S","-1.70391532110968","STD"
358.237101236979,3.93063333333333,100,7254.3603515625,6921.0234375,100,100,100,779720.375,384952928,161497.53125,13977.421875,7400.19140625,8562.3271484375,34140.7578125,8,"493","CCN(CC)CC#CCOC(=O)C(O)(C1CCCCC1)C1=CC=CC=C1","[M+H]+","0;3.724","C22H31NO3","-1.61251589803062","STD"
361.120025634766,5.11355,100,100,3623.85327148438,100,100,100,100,50726856,10673.55078125,100,100,5627.60986328125,88336.515625,8,"247","CC(C)OC(=O)C(C)(C)OC1=CC=C(C=C1)C(=O)C1=CC=C(Cl)C=C1","[M+H]+","0;3.039","C20H21ClO4","-0.266574067163851","STD"
361.20029703776,3.51106666666667,33585.82421875,12029.048828125,17731.48828125,18039.666015625,18706.537109375,34748.5078125,22771030,22626674,21372.52734375,46897.69140625,13708.6318359375,19047.69140625,13479.990234375,7,"42;44","[H][C@@]12CC[C@](O)(C(=O)CO)[C@@]1(C)C[C@H](O)[C@@]1([H])[C@@]2([H])CCC2=CC(=O)C=C[C@]12C;[H][C@@]12CC[C@](O)(C(=O)CO)[C@@]1(C)CC(=O)[C@@]1([H])[C@@]2([H])CCC2=CC(=O)CC[C@]12C","[M+H]+;[M+H]+","0;1.021;0.14","C21H28O5;C21H28O5","-1.83267357594992;-1.83267357594992","STD;STD"
363.215891520182,3.62381666666667,48154.8359375,8096.1806640625,16605.99609375,11983.228515625,19929.287109375,21425.361328125,97636744,382142.96875,10316.521484375,13745.501953125,8442.1025390625,11761.8974609375,9114.5234375,7,"43","[H][C@@]12CC[C@](O)(C(=O)CO)[C@@]1(C)C[C@H](O)[C@@]1([H])[C@@]2([H])CCC2=CC(=O)CC[C@]12C","[M+H]+","0;0.553","C21H30O5","-1.9756289158322","STD"
366.112141927083,1.27782,100,100,100,100,100,3348114,100,100,100,100,100,42295.140625,100,6,"76","[H][C@]12SC(C)(C)[C@@H](N1C(=O)[C@H]2NC(=O)[C@H](N)C1=CC=C(O)C=C1)C(O)=O","[M+H]+","0;-3.064","C16H19N3O5S","0.861831790926354","STD"
369.13335164388,4.14468333333333,175008.609375,12374827,213547.5,41131.24609375,74559.1015625,58084.69921875,52879.3828125,34328.73828125,46022.59765625,28287.24609375,22932.84765625,30556.21875,100375.3359375,2,"599","COC1=CC(\C=C\C(=O)CC(=O)\C=C\C2=CC(OC)=C(O)C=C2)=CC=C1O","[M+H]+","0;1.677","C21H20O6","0.211966433505721","STD"
369.238128662109,3.5001,100,3846.033203125,4487.35986328125,100,100,100,100,100,100,65103540,100,100,100,10,"70","[H][C@]12C[C@H](N(C(=O)[C@H](C)N[C@@H](CCC)C(=O)OCC)[C@@]1([H])CCCC2)C(O)=O","[M+H]+","0;2.578","C19H32N2O5","-0.754087591184046","STD"
370.083079020182,0.472515,100,48757.2109375,100,100,114115.984375,100,7197.30517578125,100,16090.1796875,100,6052.068359375,182115.46875,100,12,"300","CC1=C(OCC(F)(F)F)C=CN=C1CS(=O)C1=NC2=CC=CC=C2N1","[M+H]+","0;0.667","C16H14F3N3O2S","-0.237729912389427","STD"
371.160786946615,4.22798333333333,20746.615234375,14658.12890625,23573.939453125,100,7517.60791015625,7363.90234375,100,266043824,441131.15625,30072.552734375,7448.9169921875,23601.37890625,56220.96484375,8,"638","CSC1=CC2=C(SC3=CC=CC=C3N2CCC2CCCCN2C)C=C1","[M+H]+","0;4.047","C21H26N2S2","-0.641914214474304","STD"
372.232299804688,5.05988333333333,19774.314453125,32245.244140625,179010.78125,35653.3359375,15364.9443359375,28123400,261021.171875,1323123.375,259725.59375,64176.296875,10966.7333984375,168875.03125,152347.0625,6,"273","CC\C(=C(/C1=CC=CC=C1)C1=CC=C(OCCN(C)C)C=C1)C1=CC=CC=C1","[M+H]+","0;6.342","C26H29NO","0.269199336240597","STD"
373.164764404297,4.00791666666667,7677.05517578125,4693.4033203125,20838.26953125,10142.6630859375,100,4797.29736328125,100,94659.6015625,5227.869140625,2067147,23887.48046875,8175.91552734375,6777.80517578125,10,"608","COC1=CC(CCC(=O)CC(=O)CCC2=CC(OC)=C(O)C=C2)=CC=C1O","[M+H]+","0;1.175","C21H24O6","0.511581786936971","STD"
377.145690917969,2.52555,18282.828125,100,100,100,7494.03076171875,5561.60400390625,4530.9892578125,100,100462.484375,23701906,5730.07470703125,4504.32421875,5331.615234375,10,"286","CC1=C(C)C=C2N(C[C@H](O)[C@H](O)[C@H](O)CO)C3=NC(=O)NC(=O)C3=NC2=C1","[M+H]+","0;-2.049","C17H20N4O6","0.322204315013172","STD"
379.222096761068,3.81248333333333,100,400565504,166844.109375,32296.755859375,4207.3369140625,100,100,100,4527.9755859375,100,100,100,3721.58569335938,2,"569","COC(=O)C(CC1=CC=CC=C1)NC(=O)C(CC(O)=O)NCCC(C)(C)C","[M+H]+","0;2.581","C20H30N2O5","-1.74129866815734","STD"
383.151682535807,4.33958333333333,106807.1015625,16162.5771484375,29908.24609375,22107.705078125,39954.7578125,40325.59375,332240256,241815.8125,109816.4765625,24309.3515625,18417.5234375,36952.04296875,54589.54296875,7,"515","CCOC(=O)N1CCC(CC1)=C1C2=C(CCC3=C1N=CC=C3)C=C(Cl)C=C2","[M+H]+","0;1.818","C22H23ClN2O2","-1.06528096204223","STD"
384.075805664062,4.51796666666667,278748.53125,100,100,100,100,100,9503849,100,100,100,100,100,100,7,"505","CCOC(=O)C1=C(C)NC(C)=C(C1C1=C(Cl)C(Cl)=CC=C1)C(=O)OC","[M+H]+","0;3.739","C18H19Cl2NO4","-1.54353887769904","STD"
385.34575398763,8.263,27753.115234375,3083748.25,21347.0361328125,17540.521484375,30230.654296875,26045.875,21038.48828125,21999.23828125,26400.29296875,19279.462890625,32315.126953125,1473084.25,15953.466796875,2,"49;50;236","[H][C@@]12CC[C@H]([C@H](C)CCCC(C)C)[C@@]1(C)CC[C@@]1([H])[C@@]2([H])CCC2=CC(=O)CC[C@]12C;[H][C@@]12CC[C@H]([C@H](C)CCCC(C)C)[C@@]1(C)CC[C@@]1([H])C2=CC=C2C[C@@H](O)CC[C@]12C;CC(C)CCC[C@@H](C)[C@H]1CCC2\C(CCC[C@]12C)=C\C=C1\C[C@@H](O)CCC1=C","[M+H]+;[M+H]+;[M+H]+","0;10.511;9.515;9.896","C27H44O;C27H44O;C27H44O","-1.93855093061914;-1.93855093061914;-1.93855093061914","STD;STD;STD"
389.162038167318,3.90176666666667,5699.67578125,3481.93896484375,7406.8251953125,13789.0224609375,100,4829.68798828125,100,119427456,5828.8759765625,5237.21923828125,7024.166015625,89071.1015625,4312.6142578125,8,"956","OC(=O)COCCN1CCN(CC1)C(C1=CC=CC=C1)C1=CC=C(Cl)C=C1","[M+H]+","0;0.891","C21H25ClN2O3","-1.58605573378705","STD"
390.144053141276,3.7851,100,100,100,100,100,100,100,53936388,100,100,100,100,100,8,"73","[H][C@]12CC3=C(NC4=CC=CC=C34)[C@H](N1C(=O)CN(C)C2=O)C1=CC2=C(OCO2)C=C1","[M+H]+","0;0.116","C22H19N3O4","-2.01966098838447","STD"
391.123555501302,4.43281666666667,27583.251953125,100,100,5928.58251953125,20367.578125,17045.28515625,100,100,517870.4375,100,100,100,100,9,"176","CC(=O)OC[C@H]1O[C@@H](OC(C)=O)[C@H](OC(C)=O)[C@@H](OC(C)=O)[C@@H]1OC(C)=O","[M+H]+","0;0.287","C16H22O11","0.150850801895678","STD"
392.184997558594,3.461,48657.4765625,224440.4375,133081.296875,72534.0625,52132.76171875,43478.23046875,100,100546.890625,27818.072265625,18813.033203125,16688.921875,135825216,13518.357421875,12,"299","CC1=C(OC2=C(C=CC=C2C(=O)OCCN2CCCCC2)C1=O)C1=CC=CC=C1","[M+H]+","0;2.977","C24H25NO4","-1.64652245765635","STD"
393.206309000651,3.79925,4247.19091796875,4908.58544921875,7068.2705078125,32511.783203125,6998.94580078125,6294.28466796875,9520600,14284598,11198.255859375,5920.275390625,7627.20947265625,100,7339.626953125,8,"31;33","[H][C@@]12C[C@@H](C)[C@](O)(C(=O)CO)[C@@]1(C)C[C@H](O)[C@@]1(F)[C@@]2([H])CCC2=CC(=O)C=C[C@]12C;[H][C@@]12C[C@H](C)[C@](O)(C(=O)CO)[C@@]1(C)C[C@H](O)[C@@]1(F)[C@@]2([H])CCC2=CC(=O)C=C[C@]12C","[M+H]+;[M+H]+","0;1.138;1.138","C22H29FO5;C22H29FO5","-2.23343148085544;-2.23343148085544","STD;STD"
395.148610432943,4.36705,26803.921875,14231.244140625,31089.64453125,10841.4072265625,10092.970703125,12045.462890625,100,39124388,6558.2568359375,2767312,12821.3720703125,9158.5830078125,7416.478515625,8,"55","[H][C@@]12COC3=C(C=C(OC)C(OC)=C3)[C@]1([H])C(=O)C1=CC=C3O[C@H](CC3=C1O2)C(C)=C","[M+H]+","0;1.599","C23H22O6","-0.792023681065485","STD"
400.151784261068,4.29808333333333,47628.03125,100,29380.751953125,190338.34375,40847.2578125,33046.87109375,46033.58203125,100,100,100,21986.33203125,100,100,4,"125","C[S+](CC[C@H](N)C(O)=O)C[C@H]1O[C@H]([C@H](O)[C@@H]1O)N1C=NC2=C(N)N=CN=C12","[M+H]+","0;-3.942","C15H23N6O5S","-1.41031217212491","STD"
404.155476888021,4.43601666666667,100,20913.638671875,37189.95703125,31903.09375,5265.0087890625,100,90457128,473742.125,51190.8671875,10059.46484375,8348.921875,17597.91796875,14989.0849609375,7,"1076","OCCN1CCN(CCCN2C3=CC=CC=C3SC3=C2C=C(Cl)C=C3)CC1","[M+H]+","0;1.96","C21H26ClN3OS","-0.789329842789135","STD"
405.263346354167,4.9585,399017.1875,334935.5,370433.15625,351090.25,393830.90625,356742.125,360515.03125,39759904,359316.53125,342591.5625,356697.875,377391.09375,381595.28125,8,"68","[H][C@]12[C@H](C[C@@H](C)C=C1C=C[C@H](C)[C@@H]2CC[C@@H]1C[C@@H](O)CC(=O)O1)OC(=O)[C@@H](C)CC","[M+H]+","0;4.574","C24H36O5","-0.525450512270034","STD"
406.192647298177,4.58358333333333,4900.712890625,7594.25244140625,25700.55078125,100,442135.125,100,174134320,340536.46875,66387.2421875,100,12795.98046875,25429.810546875,42261.2265625,7,"495","CCN(CC)CCOC1=CC=C(C=C1)C(=C(Cl)C1=CC=CC=C1)C1=CC=CC=C1","[M+H]+","0;5.432","C26H28ClNO","-1.42765219126739","STD"
406.233561197917,2.31016666666667,12109.78515625,2832.408203125,2640.85913085938,100,5917.51708984375,6371.06884765625,100,21853032,11265.3349609375,4751.6767578125,100,3069.36694335938,4600.90185546875,8,"790","NCCCC[C@H](N[C@@H](CCC1=CC=CC=C1)C(O)=O)C(=O)N1CCC[C@H]1C(O)=O","[M+H]+","0;-0.91","C21H31N3O5","-0.233614580459195","STD"
407.196004231771,3.47936666666667,100,100,100,100,100,100,231960624,328295.625,17421.15625,27017.373046875,100,6144.8818359375,7485.572265625,7,"629","COC1=CC=CC=C1OCCNCC(O)COC1=CC=CC2=C1C1=CC=CC=C1N2","[M+H]+","0;1.816","C24H26N2O4","-1.32139859780453","STD"
409.151845296224,3.87328333333333,100,100,2665.30639648438,75038.28125,25192.279296875,100,100,15361062,41856.125,2945.4560546875,6297.80712890625,210353.125,3331.03540039062,8,"506","CCOC(=O)C1=C(COCCN)NC(C)=C(C1C1=CC=CC=C1Cl)C(=O)OC","[M+H]+","0;2.079","C20H25ClN2O5","-1.56250981968101","STD"
412.191243489583,4.45841666666667,34920.25390625,20102.5625,19778.32421875,21108.716796875,30494.166015625,35284.49609375,20112.265625,39120728,268075.4375,4706.1181640625,37361.39453125,21723.05078125,84051.1953125,8,"244","CC(C)N1C(\C=C\[C@H](O)C[C@H](O)CC(O)=O)=C(C2=CC=C(F)C=C2)C2=CC=CC=C12","[M+H]+","0;2.429","C24H26FNO4","-1.52358990388308","STD"
415.168100992839,3.61231666666667,100,100,100,100,260026800,163854.6875,100,100,3072.7275390625,100,5488.6591796875,100,100,5,"612","COC1=CC=C(C=C1)[C@@H]1SC2=CC=CC=C2N(CCN(C)C)C(=O)[C@@H]1OC(C)=O","[M+H]+","0;0.987000000000001","C22H26N2O4S","-1.23325265063982","STD"
423.092702229818,2.45225,100,8141.90234375,4020.39453125,171345.953125,16262.8896484375,100,100,100,100,2611288.5,34113.3046875,32958.78515625,2213.46850585938,10,"1066","OCC1OC(C(O)C(O)C1O)C1=C(O)C2=C(OC3=C(C=C(O)C(O)=C3)C2=O)C=C1O","[M+H]+","0;-0.899000000000002","C19H18O11","1.19555316198504","STD"
429.239196777344,3.93063333333333,32118.69140625,26548.55078125,22458.611328125,46806.97265625,32651.421875,14298.41796875,100,264795984,428794.34375,49631.26953125,29842.40234375,49026.87890625,102284.96875,8,"398","CCCCC1=NC2(CCCC2)C(=O)N1CC1=CC=C(C=C1)C1=CC=CC=C1C1=NNN=N1","[M+H]+","0;4.564","C25H28N6O","-1.27603131340126","STD"
433.874715169271,2.4826,22087.626953125,100,100,100,100,100,100,100,100,100,31555382,7444.38134765625,100,11,"58","[H][C@](N)(CC1=CC(I)=C(O)C(I)=C1)C(O)=O","[M+H]+","0;-0.665","C9H9I2NO3","0.576593339550551","STD"
436.233703613281,4.08323333333333,694398.5625,211505.515625,141345.15625,143591.078125,299446.4375,202751.671875,224380.03125,180769.359375,155286016,406184.09375,20258.607421875,219859.890625,1110011.875,9,"385","CCCCC(=O)N(CC1=CC=C(C=C1)C1=CC=CC=C1C1=NNN=N1)[C@@H](C(C)C)C(O)=O","[M+H]+","0;4.409","C24H29N5O3","-1.42397690465488","STD"
437.144755045573,3.18261666666667,100,100,100,100,100,230810.296875,314151.34375,100,100,100,18222.59765625,100,100,7,"990","OC[C@H]1O[C@@H](OC2=CC(O)=CC(O)=C2C(=O)CCC2=CC=C(O)C=C2)[C@H](O)[C@@H](O)[C@@H]1O","[M+H]+","0;0.0679999999999999","C21H24O10","1.19650428590265","STD"
441.162821451823,1.9733,30548.9453125,8149.638671875,4371.97802734375,3577.2568359375,11360.109375,34299.796875,9442.439453125,8960.525390625,3750.859375,4095.87719726562,2877303.5,3610.56665039062,4421.42138671875,11,"760","NC1=NC2=C(N=C(CNC3=CC=C(C=C3)C(=O)NC(CCC(O)=O)C(O)=O)C=N2)C(N)=N1","[M+H]+","0;-5.2","C19H20N8O5","-0.293198272216727","STD"
442.14751180013,2.17388333333333,6764.4375,3515.65063476562,2153.03686523438,3086.48779296875,100,100,100,100,100,425913.15625,16419.48046875,4238.5810546875,3177.69799804688,10,"748","NC1=NC(=O)C2=NC(CNC3=CC=C(C=C3)C(=O)N[C@@H](CCC(O)=O)C(O)=O)=CN=C2N1","[M+H]+","0;-3.972","C19H19N7O6","1.23352527265429","STD"