"mz","rt","H2O_Mix1_150_450.mzXML","H2O_Mix10_150_450.mzXML","H2O_Mix11_150_450.mzXML","H2O_Mix12_150_450.mzXML","H2O_Mix2_150_450.mzXML","H2O_Mix3_150_450.mzXML","H2O_Mix4_150_450.mzXML","H2O_Mix5_150_450.mzXML","H2O_Mix6_150_450.mzXML","H2O_Mix7_150_450.mzXML","H2O_Mix8_150_450.mzXML","H2O_Mix9_150_450.mzXML","MeOH_2.mzXML","SampleID","ID","SMILES","Adducts","LOGP","formula","mserror","db"
268.103708902995,0.633436666666667,65022.3671875,100,100,100,100,100,100,100,16238704,15152.7197265625,3129425.5,28543.9921875,100,9,"733;764","NC1=C2N=CN([C@@H]3O[C@H](CO)[C@@H](O)[C@H]3O)C2=NC=N1;NC1=NC2=C(N=CN2[C@H]2C[C@H](O)[C@@H](CO)O2)C(=O)N1","[M+H]+;[M+H]+","0;-2.367;-1.671","C10H13N5O4;C10H13N5O4","-1.23085579971742;-1.23085579971742","STD;STD"
269.06206258138,0.514031666666667,41467.0625,20031.330078125,100,18671.810546875,349196.8125,100,100,100,6734.37255859375,100873.953125,18893.52734375,100,100,5,"715","NC(CCSSCCC(N)C(O)=O)C(O)=O","[M+H]+","0;-2.596","C8H16N2O4S2","-1.3781899106504","STD"
269.080474853516,3.8654,4623320.5,58959.8671875,3518.30346679688,33250.80078125,93213.8828125,42843.55859375,22437.841796875,100,9175.537109375,170608.734375,59443.31640625,12660.8408203125,14434.3876953125,1,"614","COC1=CC=C(C=C1)C1=COC2=C(C=CC(O)=C2)C1=O","[M+H]+","0;1.445","C16H12O4","-1.37150970987833","STD"
269.124176025391,0.508775,100,19841.99609375,100,100,100,100,100,100,100,22835718,100,100,100,10,"171","CC(=O)NCCC(=O)N[C@H](CC1=CN=CN1)C(O)=O","[M+H]+","0;-1.657","C11H16N4O4","-0.980865461070239","STD"
269.154215494792,4.06396666666667,12470.091796875,8259.8564453125,12367.537109375,11100.5,10336.7421875,1207599.375,6556.541015625,19398.94921875,6872.66845703125,7560.8359375,7396.5517578125,10088.220703125,8036.056640625,6,"349","CCC(=C(CC)C1=CC=C(O)C=C1)C1=CC=C(O)C=C1","[M+H]+","0;4.052","C18H20O2","2.23141514209837","STD"
271.059844970703,3.54546666666667,100,304710.90625,99365.46875,4731.91650390625,46671.89453125,226426.484375,43731.8515625,9799.3115234375,19310.998046875,78501.8046875,39768.0859375,41556092,26164.099609375,12,"1030;1032;1043","OC1=CC=C(C=C1)C1=CC(=O)C2=C(O)C=C(O)C=C2O1;OC1=CC=C(C=C1)C1=COC2=CC(O)=CC(O)=C2C1=O;OC1=CC2=C(C(O)=C1O)C(=O)C=C(O2)C1=CC=CC=C1","[M+H]+;[M+H]+;[M+H]+","0;1.138;1.043;2.361","C15H10O5;C15H10O5;C15H10O5","-0.971849213001828;-0.971849213001828;-0.971849213001828","STD;STD;STD"
271.110758463542,3.67028333333333,37379.90625,4661.8681640625,8248.31640625,19786.796875,324594.75,6036.34033203125,93784568,43167980,12231.3583984375,7895.80615234375,324253.59375,9385.1328125,10897.6455078125,7,"484","CCCCNC(=O)NS(=O)(=O)C1=CC=C(C)C=C1","[M+H]+","0;1.099","C12H18N2O3S","-1.25275905656781","STD"
271.169596354167,4.06396666666667,100,10141.6201171875,11686.013671875,14300.32421875,24696.73828125,6356503.5,27902.947265625,1168854,34910.87109375,16584.3203125,38705.19140625,14527.3603515625,11824.017578125,6,"54","[H][C@@]12CCC(=O)[C@@]1(C)CC[C@]1([H])C3=C(CC[C@@]21[H])C=C(O)C=C3","[M+H]+","0;2.865","C18H22O2","1.22231316297001","STD"
271.180246988932,3.43245,2715354.5,3237.75537109375,100,100,172463.09375,43847.171875,21297.57421875,9850.765625,6680.91552734375,100,174783.890625,3040.89184570312,2776.26440429688,1,"530","CN(C)CCOC(C)(C1=CC=CC=C1)C1=CC=CC=N1","[M+H]+","0;1.315","C17H22N2O","-0.926730728916599","STD"
273.075276692708,3.461,16410.33203125,10983.2646484375,12278.6103515625,22364.388671875,113949.8125,4261.99853515625,6792.30615234375,55137.06640625,6894.60546875,11763.65625,79917.9296875,32426732,6741.6015625,12,"64","[H][C@]1(CC(=O)C2=C(O1)C=C(O)C=C2O)C1=CC=C(O)C=C1","[M+H]+","0;0.79","C15H12O5","-1.7643753687402","STD"
273.076029459635,2.92743333333333,16410.33203125,17641.046875,12278.6103515625,22364.388671875,2243040,26223.255859375,6792.30615234375,55137.06640625,6894.60546875,11763.65625,24369.99609375,11875.890625,6741.6015625,5,"64","[H][C@]1(CC(=O)C2=C(O1)C=C(O)C=C2O)C1=CC=C(O)C=C1","[M+H]+","0;0.79","C15H12O5","0.992249797740175","STD"
275.091176350911,3.4935,87061.359375,21225.15234375,19159.95703125,16468.5,20699.833984375,5727.55712890625,9062.5576171875,25461.28125,11432.400390625,13975.6015625,23412694,15735.0263671875,15616.7158203125,11,"1035","OC1=CC=C(CCC(=O)C2=C(O)C=C(O)C=C2O)C=C1","[M+H]+","0;1.803","C15H14O5","-0.844262226416032","STD"
275.130666097005,3.24551666666667,100,10731.6533203125,13765.9208984375,20521.017578125,100,2308.23974609375,100,55461036,251847.90625,29773.08203125,55468.0859375,17437.45703125,50504.66015625,8,"525","CN(C)CCC(C1=CC=C(Cl)C=C1)C1=CC=CC=N1","[M+H]+","0;1.366","C16H19ClN2","-1.0729556220268","STD"
277.04052734375,3.55191666666667,12491.8916015625,12147.83984375,5394.294921875,4448.52099609375,2405762,12832.5009765625,100,23042292,8506.7802734375,3561.21801757812,106609.5078125,4367.15234375,4364.72314453125,8,"488","CCCNC(=O)NS(=O)(=O)C1=CC=C(Cl)C=C1","[M+H]+","0;0.504","C10H13ClN2O3S","-1.0769408102988","STD"
277.128000895182,3.44551666666667,81805.953125,157708.234375,50099264,50645.07421875,20532492,42719.609375,38747.46875,18093450,95358.671875,132065.234375,184468.4375,10533.8291015625,92583.140625,3,"510","CCOC(=O)CC(O)(CC(=O)OCC)C(=O)OCC","[M+H]+","0;-0.0149999999999999","C12H20O7","-0.675156669003597","STD"
278.189951578776,3.88733333333333,8342.3603515625,6502.8896484375,8051.962890625,5484.65771484375,2976.32983398438,3858.83056640625,10174.9326171875,1525775.25,29217.146484375,10663.5322265625,7826.1796875,4189.38720703125,5097.9521484375,8,"526","CN(C)CCC=C1C2=CC=CC=C2CCC2=CC=CC=C12","[M+H]+","0;4.792","C20H23N","-1.37719289229658","STD"
279.145517985026,3.07453333333333,100,6892.70703125,4513.30419921875,51836.89453125,100,19485.111328125,100,100,1996.87548828125,100,100,135118.53125,100,12,"549","CN1C=NC2=C1C(=O)N(CCCCC(C)=O)C(=O)N2C","[M+H]+","0;0.0259999999999999","C13H18N4O3","1.2269049793458","STD"
279.144785563151,2.8994,5252.62158203125,41987.57421875,15446.3935546875,7071.986328125,3690.666015625,3050.03344726562,100,2147.23608398438,3165.89013671875,100,100,142237136,1699.39465332031,12,"549","CN1C=NC2=C1C(=O)N(CCCCC(C)=O)C(=O)N2C","[M+H]+","0;0.0259999999999999","C13H18N4O3","-1.39689820189707","STD"
280.169199625651,3.49003333333333,8458.51953125,6367.03955078125,3415.56591796875,13884.3330078125,3264.29296875,5795.53466796875,100,255785136,258242.28125,40402.09765625,18181.830078125,21229.73828125,56838.3515625,8,"79","[H]C(CCN(C)C)=C1C2=CC=CC=C2COC2=CC=CC=C12","[M+H]+","0;2.542","C19H21NO","-1.42654634956877","STD"
281.116790771484,4.61323333333333,100,11457.892578125,33829.453125,7115.58935546875,6478.46875,6026.14453125,276620640,53463.1796875,7843.7265625,5330.2431640625,7931.0673828125,14811.6904296875,5962.86572265625,7,"249","CC(C)OC1=CC2=C(C=C1)C(=O)C(=CO2)C1=CC=CC=C1","[M+H]+","0;3.464","C18H16O3","-1.5603070696586","STD"
282.119598388672,0.509273333333333,100,100,100,100,100,100,100,100,28301342,100,100,100,100,9,"547","CN1C=NC2=C(N=CN2[C@@H]2O[C@H](CO)[C@@H](O)[C@H]2O)C1=N","[M+H]+","0;-0.596","C11H15N5O4","-0.321180550926621","STD"
283.153798421224,4.18228333333333,52209.44140625,25068.775390625,28470.515625,56796.36328125,34047.375,1436323.25,91623.5546875,11484829,35716.69921875,36529.4140625,43462.73046875,33359.94140625,32207.849609375,8,"478","CCCCCCCCOC(=O)C1=CC(O)=C(O)C(O)=C1","[M+H]+","0;4.643","C15H22O5","-0.74298412097845","STD"
284.098826090495,0.652446666666667,100,100,100,100,100,100,100,100,100,6205650.5,100,72843.703125,100,10,"761","NC1=NC2=C(N=CN2[C@@H]2O[C@H](CO)[C@@H](O)[C@H]2O)C(=O)N1","[M+H]+","0;-2.272","C10H13N5O5","-0.448820949966032","STD"
285.039815266927,4.3784,40619.72265625,6177.0947265625,8410.849609375,13416.3662109375,50754.69921875,52474.54296875,29411.6953125,21011.322265625,740591.0625,16580.21875,5799.42333984375,45398.34765625,6360.61865234375,9,"902","OC(=O)C1=CC2=C(C(O)=C1)C(=O)C1=C(C=CC=C1O)C2=O","[M+H]+","0;-0.261","C15H8O6","1.55159701673934","STD"
285.075358072917,4.16118333333333,188336.578125,4364.11083984375,2897.72143554688,6555.34228515625,45378.30859375,8927.361328125,22871.75390625,43006.68359375,344664.6875,4865.00537109375,28444.7890625,95846.2109375,3231.9267578125,9,"615","COC1=CC=C(C=C1)C1=COC2=CC(O)=CC(O)=C2C1=O","[M+H]+","0;1.364","C16H12O5","-1.4046359028084","STD"
285.082977294922,0.815571666666667,100,100,100,100,100,100,100,100,477475.53125,100,100,100,100,9,"994","OC[C@H]1O[C@H]([C@H](O)[C@@H]1O)N1C=NC2=C1N=C(O)N=C2O","[M+H]+","0;-1.879","C10H12N4O6","0.0287457430007768","STD"
285.14155069987,3.6759,243281.484375,100,12236.345703125,100,6622.62841796875,100,100,40304684,7536.6611328125,2173.04272460938,100,242114.109375,3784.07861328125,8,"254","CC(CN1C2=CC=CC=C2SC2=CC=CC=C12)N(C)C","[M+H]+","0;2.551","C17H20N2S","-1.59078930754744","STD"
285.159444173177,2.4373,100,3235.4619140625,2312.92749023438,12863.2060546875,100,5213.6298828125,127938160,126482.3046875,7356.033203125,32218.654296875,4598.45263671875,8145.49365234375,4049.11694335938,7,"496","CCN(CC1=CC=NC=C1)C(=O)C(CO)C1=CC=CC=C1","[M+H]+","0;0.292","C17H20N2O2","-1.11771442087301","STD"
286.103546142578,1.15475,100,100,100,100,100,100,100,100,100,1341613,100,100,100,10,"168","CC(=O)NC1=NC(=O)N(C=C1)[C@@H]1O[C@H](CO)[C@@H](O)[C@H]1O","[M+H]+","0;-2.122","C11H15N3O6","0.614961192823222","STD"
286.143361409505,4.22551666666667,410405184,5921.05078125,34358.8984375,44417.38671875,70356.671875,18481.689453125,100,23516074,12913.13671875,6281.73046875,4489.1201171875,52438.93359375,12625.673828125,1,"829","O=C(\C=C\C=C\C1=CC2=C(OCO2)C=C1)N1CCCCC1","[M+H]+","0;2.25","C17H19NO3","-1.45762771814255","STD"
287.054667154948,3.51093333333333,126326.9453125,174543.046875,71115.25,37378.38671875,138322.171875,1016561.5,79557.515625,50966.74609375,242845.203125,5084712,128748.9453125,7122902,26462.927734375,12,"1029;1042","OC1=CC=C(C=C1)C1=C(O)C(=O)C2=C(O1)C=C(O)C=C2O;OC1=CC2=C(C(O)=C1)C(=O)C=C(O2)C1=CC=C(O)C(O)=C1","[M+H]+;[M+H]+","0;1.486;1.218","C15H10O6;C15H10O6","-1.23999047128909;-1.23999047128909","STD;STD"
287.055531819661,3.695,126326.9453125,174543.046875,55824.359375,37378.38671875,154039.984375,337074.40625,49634.45703125,32659.1328125,25904.494140625,5084712,123102.9296875,2202789.25,26462.927734375,10,"1029;1042","OC1=CC=C(C=C1)C1=C(O)C(=O)C2=C(O1)C=C(O)C=C2O;OC1=CC2=C(C(O)=C1)C(=O)C=C(O2)C1=CC=C(O)C(O)=C1","[M+H]+;[M+H]+","0;1.486;1.218","C15H10O6;C15H10O6","1.7721994687097;1.7721994687097","STD;STD"
287.113291422526,3.53746666666667,5298.0869140625,5379.724609375,4203.91162109375,34937.234375,5620.58056640625,4909.76123046875,4850.89794921875,996356.1875,4317.07666015625,6151.40283203125,50169.56640625,13548.2236328125,3953.54248046875,8,"988","OC[C@H]1O[C@@H](OC2=C(CO)C=CC=C2)[C@H](O)[C@@H](O)[C@@H]1O","[M+H]+","0;-1.216","C13H18O7","2.62447803195797","STD"
288.159342447917,2.3481,100,258114.375,100,34763.62890625,100,100,100,23364.673828125,100,100,100,100,100,2,"367","CCC1=C2NC3=C(CCOC3(CC)CC(O)=O)C2=CC=C1","[M+H]+","0;1.698","C17H21NO3","-0.298626732920443","STD"
288.159220377604,4.38236666666667,1121028.375,258114.375,3006.00830078125,34763.62890625,100,100,100,41348664,21078.783203125,5790.04296875,100,8910.1220703125,11037.0166015625,8,"367","CCC1=C2NC3=C(CCOC3(CC)CC(O)=O)C2=CC=C1","[M+H]+","0;1.698","C17H21NO3","-0.722247914658402","STD"
290.174641927083,2.3317,9399.24609375,289435392,247729.25,49529.08203125,7675.70068359375,7385.4365234375,9376.478515625,5410.59423828125,3885.716796875,5085.32861328125,3862.640625,3597.333984375,4226.8037109375,2,"539","CN1[C@H]2CC[C@@H]1C[C@@H](C2)OC(=O)C(CO)C1=CC=CC=C1","[M+H]+","0;1.632","C17H23NO3","-1.50486243080528","STD"
291.086496988932,1.83198333333333,6768.91162109375,3276.1748046875,6967.77783203125,5518.072265625,15334.8642578125,4776370.5,5296.43017578125,5524.26708984375,25478.275390625,8691.814453125,5761995,4333.57666015625,3340.22778320312,11,"814;824","O[C@@H]1CC2=C(O)C=C(O)C=C2O[C@@H]1C1=CC(O)=C(O)C=C1;O[C@H]1CC2=C(O)C=C(O)C=C2O[C@@H]1C1=CC(O)=C(O)C=C1","[M+H]+;[M+H]+","0;0.584;0.584","C15H14O6;C15H14O6","0.597035361689815;0.597035361689815","STD;STD"
295.128621419271,2.58611666666667,100,16282.2421875,100,100,60784476,4075.0029296875,100,100,100,100,100,19648.466796875,100,5,"567","COC(=O)[C@H](CC1=CC=CC=C1)NC(=O)[C@@H](N)CC(O)=O","[M+H]+","0;-0.273","C14H18N2O5","-0.797214204056741","STD"
295.180114746094,2.42013333333333,7801.798828125,2761.05859375,3157.94409179688,2648.13232421875,5016.46142578125,3057.90869140625,2756043,47410.57421875,19690.958984375,8918.896484375,4004.84643554688,6897.02392578125,7886.505859375,7,"961","OC(C1CC2CCN1CC2C=C)C1=CC=NC2=C1C=CC=C2","[M+H]+","0;1.393","C19H22N2O","-1.29938937905347","STD"
296.023844401042,4.41326666666667,100,100,100,100,100,100,25906.763671875,21038800,14389.416015625,100,19476.626953125,100,100,8,"923","OC(=O)CC1=CC=CC=C1NC1=C(Cl)C=CC=C1Cl","[M+H]+","0;2.219","C14H11Cl2NO2","-0.420908519120614","STD"
297.971944173177,1.209775,100,8850.8447265625,3286.31225585938,11154.185546875,100,6146.21337890625,646677.75,100,100,100,100,100,100,7,"804","NS(=O)(=O)C1=C(Cl)C=C2NCNS(=O)(=O)C2=C1","[M+H]+","0;-1.491","C7H8ClN3O4S2","0.618760190709229","STD"
301.07069905599,3.73845,660580,11010.181640625,100,9932.9111328125,55993.09765625,19186.75,592282.5,32092.169921875,41246660,30871.05859375,2368978.75,107478.7109375,111989.3046875,9,"583;617","COC1=C(O)C=C(C=C1)C1=CC(=O)C2=C(O1)C=C(O)C=C2O;COC1=CC=C(C=C1O)C1=C(O)C(=O)C2=CC=C(O)C=C2O1","[M+H]+;[M+H]+","0;1.11;1.539","C16H12O6;C16H12O6","0.0862122753995604;0.0862122753995604","STD;STD"
302.247304280599,3.76953333333333,100,100,15007.3359375,9044.94140625,5235.37890625,3275.53833007812,100,237658880,44552.34375,6179.37255859375,8044.3134765625,4542.7568359375,11240.0654296875,8,"962","OC(CCN1CCCCC1)(C1CCCCC1)C1=CC=CC=C1","[M+H]+","0;3.903","C20H31NO","-1.80421592949903","STD"
303.050130208333,3.42201666666667,152463.3125,5746.33251953125,8376.556640625,50419.87109375,2774293.25,27269.107421875,2490291,15826.6064453125,26912.923828125,187895.484375,73985.140625,7453.7607421875,5573.48681640625,5,"1041","OC1=CC2=C(C(O)=C1)C(=O)C(O)=C(O2)C1=CC=C(O)C(O)=C1","[M+H]+","0;1.566","C15H10O7","0.635235935459931","STD"
303.08583577474,3.55191666666667,85234.078125,36188.30078125,23710.662109375,25989.537109375,44846.3828125,207401.546875,78063.84375,32681766,48700.9296875,54215.37890625,8697.146484375,45457.29296875,51482.97265625,8,"582","COC1=C(O)C=C(C=C1)[C@@H]1CC(=O)C2=C(O)C=C(O)C=C2O1","[M+H]+","0;0.762","C16H14O6","-1.60820864079152","STD"
303.159159342448,3.97536666666667,20434.333984375,22916.25,18178.240234375,276102.40625,14842.1240234375,20792.30859375,15155.60546875,24242.482421875,22504.525390625,24344.896484375,20296.90625,3086474,13531.68359375,12,"97","C[C@@H](CC1=CC(O)=C(O)C=C1)[C@H](C)CC1=CC(O)=C(O)C=C1","[M+H]+","0;4.286","C18H22O4","0.21487870639088","STD"
306.080861409505,4.0546,32524.908203125,100,6126.455078125,100,100,100,100,49072268,37437.13671875,3689.0185546875,2459.88061523438,16841.78515625,3829.22973632812,8,"536","CN[C@H]1CC[C@@H](C2=CC(Cl)=C(Cl)C=C2)C2=CC=CC=C12","[M+H]+","0;3.14","C17H17Cl2N","-0.746830409198029","STD"
307.978047688802,1.6676,100,100,100,100,135267.796875,100,100,100,100,100,2730274.75,3010.79663085938,1974.74853515625,11,"653","N[C@@H](CC1=CC=C(O)C(I)=C1)C(O)=O","[M+H]+","0;-1.688","C9H10INO3","0.734106874504811","STD"
308.09038289388,2.09133333333333,100,7515.27587890625,100,100,54115.83203125,100,100,314065.3125,2693.00317382812,100,100,100,100,8,"661","N[C@@H](CCC(=O)N[C@@H](CS)C(=O)NCC(O)=O)C(O)=O","[M+H]+","0;-4.23","C10H17N3O6S","-2.29837138475831","STD"
308.090738932292,0.540346666666667,100,100,100,100,100,100,100,100,2279424.75,100,100,11676.259765625,100,9,"661","N[C@@H](CCC(=O)N[C@@H](CS)C(=O)NCC(O)=O)C(O)=O","[M+H]+","0;-4.23","C10H17N3O6S","-1.14274031467099","STD"
308.200408935547,3.86423333333333,8374.591796875,33730.73828125,31283.59765625,18257.00390625,7428.8115234375,9484.8232421875,342557888,779056.875,114723.8984375,49736.14453125,26903.95703125,26992.08203125,57552.0078125,7,"72","[H][C@]12CC[C@]([H])(C[C@@]([H])(C1)OC(C1=CC=CC=C1)C1=CC=CC=C1)N2C","[M+H]+","0;3.045","C21H25NO","-1.59138157767716","STD"
310.11317952474,0.488623333333333,100,100,100,100,100,100,100,100,100,100,10145.4794921875,1045679.5625,100,12,"161","CC(=O)N[C@@H]1[C@@H](O)C[C@](O)(O[C@H]1[C@H](O)[C@H](O)CO)C(O)=O","[M+H]+","0;-3.525","C11H19NO9","-0.279495570254326","STD"
310.140797932943,3.90176666666667,38365.109375,13741.529296875,8716.859375,24303.62109375,21064.986328125,9583.2900390625,22219.474609375,100505912,46614.97265625,5281.619140625,100,34238.75,11445.4384765625,8,"565","CNCCC(OC1=CC=C(C=C1)C(F)(F)F)C1=CC=CC=C1","[M+H]+","0;3.103","C17H18F3NO","-1.72781865724949","STD"
313.147888183594,2.14076666666667,64098.67578125,5227.1845703125,25568.0703125,14643.697265625,41237.16015625,30484.408203125,45310.4921875,100441136,605777.25,106004.953125,46577.359375,35111.51171875,112878.875,8,"557","CN1CCN(CC1)C1=NC2=CC=CC=C2NC2=C1C=C(C)S2","[M+H]+","0;1.884","C17H20N4S","-0.843743215212887","STD"
315.148864746094,2.00405,50422.359375,66627.46875,2086.11694335938,100,27992.625,100,100,49065424,277632.65625,79571.0625,100,100,11166.0009765625,8,"537","CN\C(NCCSCC1=CC=C(CN(C)C)O1)=C/[N+]([O-])=O","[M+H]+","0;1.282","C13H22N4O3S","1.01046244998366","STD"
315.148417154948,1.451695,6937.19970703125,3412.462890625,100,100,100,100,100,49065424,32128.5234375,7126.7109375,3228.30517578125,4472.0556640625,5423.75732421875,8,"537","CN\C(NCCSCC1=CC=C(CN(C)C)O1)=C/[N+]([O-])=O","[M+H]+","0;1.282","C13H22N4O3S","-0.409791212565453","STD"
315.161794026693,4.14483333333333,50101.64453125,228537.828125,249869.046875,3462525.75,172022.796875,195489.171875,171819664,204495.8125,237094.125,231130.96875,57803.56640625,26075.60546875,211196.703125,7,"528","CN(C)CCCN1C2=CC=CC=C2CCC2=C1C=C(Cl)C=C2","[M+H]+","0;2.966","C19H23ClN2","-1.48328038443008","STD"
315.231821695964,6.42951666666667,373237.78125,218346.78125,194850.875,177487.875,169297952,306307.34375,316830.75,292059.21875,292583.8125,260657.4375,242621.0625,224153.125,333624.90625,5,"51","[H][C@@]12CC[C@H](C(C)=O)[C@@]1(C)CC[C@@]1([H])[C@@]2([H])CCC2=CC(=O)CC[C@]12C","[M+H]+","0;4.826","C21H30O2","-0.138006485962638","STD"
315.231577555339,4.5682,52253.13671875,43154.59375,11403.0830078125,21040.123046875,169297952,28086.5234375,117471.2890625,18963.46484375,19405.044921875,32614.912109375,11799.517578125,14455.8642578125,14166.0703125,5,"51","[H][C@@]12CC[C@H](C(C)=O)[C@@]1(C)CC[C@@]1([H])[C@@]2([H])CCC2=CC(=O)CC[C@]12C","[M+H]+","0;4.826","C21H30O2","-0.912486823834661","STD"
317.247324625651,4.74096666666667,45953.4453125,11179.1181640625,9915.591796875,12950.1513671875,901182.1875,21710.640625,1735568.875,13342.86328125,12327.2490234375,14418.1943359375,12458.44140625,11079.197265625,14611.78515625,7,"52","[H][C@@]12CC[C@H](C(C)=O)[C@@]1(C)CC[C@@]1([H])C2CC=C2C[C@H](O)CC[C@]12C","[M+H]+","0;4.833","C21H32O2","-0.601027445160192","STD"
318.206095377604,4.52081666666667,144573.78125,33945.31640625,14786.3427734375,19394.171875,94181504,428348.9375,104028.9140625,58849.43359375,50715.33984375,21241.333984375,19522.923828125,13193.966796875,26628.078125,5,"231","CC(C)C1CC[C@@H](CC1)C(=O)N[C@H](CC1=CC=CC=C1)C(O)=O","[M+H]+","0;4.365","C19H27NO3","-0.89037388061472","STD"
318.206939697266,3.4318,7159.2509765625,8404.3134765625,100,146259.375,5092.38232421875,4964.4921875,100,100,100,4188.1923828125,100,100,100,4,"231","CC(C)C1CC[C@@H](CC1)C(=O)N[C@H](CC1=CC=CC=C1)C(O)=O","[M+H]+","0;4.365","C19H27NO3","1.76299507033041","STD"
319.045318603516,3.135,85686.8125,1833068.375,2804.21337890625,13873.9086914062,23499.806640625,6671.9375,7757.12939453125,6680.8935546875,15558.9482421875,142759.71875,79631.6640625,7114.748046875,2320.33129882812,2,"1019","OC1=CC(O)=C2C(OC(=C(O)C2=O)C2=CC(O)=C(O)C(O)=C2)=C1","[M+H]+","0;1.914","C15H10O8","1.46155887221942","STD"