"mz","rt","H2O_Mix1_150_450.mzXML","H2O_Mix10_150_450.mzXML","H2O_Mix11_150_450.mzXML","H2O_Mix12_150_450.mzXML","H2O_Mix2_150_450.mzXML","H2O_Mix3_150_450.mzXML","H2O_Mix4_150_450.mzXML","H2O_Mix5_150_450.mzXML","H2O_Mix6_150_450.mzXML","H2O_Mix7_150_450.mzXML","H2O_Mix8_150_450.mzXML","H2O_Mix9_150_450.mzXML","MeOH_2.mzXML","SampleID","ID","SMILES","Adducts","LOGP","formula","mserror","db"
151.03901163737,2.21613333333333,751987.75,4917.95751953125,1753.45642089844,37620.76171875,4364.6181640625,8173.81787109375,342120.03125,26598.3984375,2786.61376953125,30805.546875,20730.99609375,126030.6328125,2299.66235351562,1,"872","OC(=O)C(=O)C1=CC=CC=C1","[M+H]+","0;0.596","C8H6O3","0.215423615706386","STD"
151.075373331706,0.783215,12450.27734375,7447.25732421875,7256.4033203125,7731.39990234375,10171.9013671875,2035497.625,12352.62890625,9526.69921875,252314.59375,7512.3330078125,7997.54443359375,8201.1318359375,6831.603515625,6,"186;935","CC(C(O)=O)C1=CC=CC=C1;OC(=O)CCC1=CC=CC=C1","[M+H]+;[M+H]+","0;1.467;1.633","C9H10O2;C9H10O2","0.0577970175218734;0.0577970175218734","STD;STD"
151.075495402018,2.80973333333333,50418.78515625,2175015.25,83521.5,112684.984375,19815.09765625,2035497.625,43629.00390625,89256.7578125,34260.828125,20290.80078125,4249848.5,129979.3125,16614.99609375,11,"186;935","CC(C(O)=O)C1=CC=CC=C1;OC(=O)CCC1=CC=CC=C1","[M+H]+;[M+H]+","0;1.467;1.633","C9H10O2;C9H10O2","0.865805653259094;0.865805653259094","STD;STD"
151.111958821615,3.50603333333333,26820.701171875,207874.890625,3048712,3858478.5,23145.966796875,23220.318359375,25842.3359375,685749.3125,20401.580078125,17054.423828125,17768.06640625,21716.11328125,14832.9716796875,4,"139;141;224;226","CC(=C)[C@@H]1CC=C(C)C(=O)C1;CC(=C)[C@H]1CC=C(C)C(=O)C1;CC(C)C1=C(O)C=C(C)C=C1;CC(C)C1=CC(O)=C(C)C=C1","[M+H]+;[M+H]+;[M+H]+;[M+H]+","0;1.756;1.756;2.487;2.487","C10H14O;C10H14O;C10H14O;C10H14O","1.38123823302669;1.38123823302669;1.38123823302669;1.38123823302669","STD;STD;STD;STD"
152.056696573893,0.683751666666667,2043002.5,8327.9091796875,2240.77587890625,1603.06005859375,3157.71020507812,70080.296875,931467.0625,5545.02685546875,2235.681640625,2396749,6351677.5,37577.18359375,3587.0810546875,11,"746","NC1=NC(=O)C2=C(N1)N=CN2","[M+H]+","0;0.231","C5H5N5O","0.0116659971300416","STD"
152.070734659831,1.299955,9859.8857421875,3926948.5,6520.130859375,9590.947265625,72707.71875,2821679.75,556621.9375,6746.82177734375,7031.40576171875,1210904.375,6862.6806640625,47066.875,6550.22265625,2,"167","CC(=O)NC1=CC=C(O)C=C1","[M+H]+","0;0.314","C8H9NO2","0.79673338373424","STD"
152.106994628906,0.648028333333333,3114.36743164062,2282.92700195312,3546.7841796875,8723.2939453125,100,4568.77099609375,100,100,1876.69946289062,4976.431640625,10992.130859375,10043482,1816.43896484375,12,"566","CNCCC1=CC=C(O)C=C1","[M+H]+","0;0.36","C9H13NO","-0.0287369691466125","STD"
152.143325805664,2.60136666666667,2411.58374023438,1464.48583984375,1400.427734375,1608.67578125,24065436,3541.46313476562,1400.025390625,2146.1494140625,2819.958984375,2122.65649414062,1440.80603027344,1767.45129394531,1621.49633789062,5,"766","NC12CC3CC(CC(C3)C1)C2","[M+H]+","0;2.312","C10H17N","-0.385783179668117","STD"
153.040588378906,0.58849,27086.1484375,4179.947265625,1880.81652832031,7192.56982421875,1179866.5,315058.84375,12068.173828125,2140.69677734375,359748.6875,20746.880859375,35608.3359375,2038.27160644531,100,5,"844;847","O=C1NC(=O)C2=CNNC2=N1;O=C1NC2=C(NC=N2)C(=O)N1","[M+H]+;[M+H]+","0;-0.865;-0.654","C5H4N4O2;C5H4N4O2","-0.797311976496015;-0.797311976496015","STD;STD"
153.054784138997,2.46696666666667,68816.03125,17657.94140625,12343.80078125,180900.203125,19916.49609375,1008398.3125,1643969.875,88655.03125,2272667,10456.6982421875,830536.375,5705015.5,11430.169921875,12,"305;606;817;921;922;924;1052","CC1=CC(=CC=C1O)C(O)=O;COC1=CC(C=O)=CC=C1O;O[C@H](C(O)=O)C1=CC=CC=C1;OC(=O)CC1=CC(O)=CC=C1;OC(=O)CC1=CC=C(O)C=C1;OC(=O)CC1=CC=CC=C1O;OCC(=O)C1=CC=C(O)C=C1","[M+H]+;[M+H]+;[M+H]+;[M+H]+;[M+H]+;[M+H]+;[M+H]+","0;0.449;0.321;-0.16;0.328;0.117;0.328;-0.507","C8H8O3;C8H8O3;C8H8O3;C8H8O3;C8H8O3;C8H8O3;C8H8O3","1.01296406953836;1.01296406953836;1.01296406953836;1.01296406953836;1.01296406953836;1.01296406953836;1.01296406953836","STD;STD;STD;STD;STD;STD;STD"
153.127405802409,3.95353333333333,120444.2578125,32440.650390625,4082104.5,21829718,202310.703125,42197.14453125,6581986,30902.4140625,49358.23828125,36750.015625,80224.21875,56369.89453125,35441.77734375,4,"37;103","[H][C@@]12CC[C@@](C)(C(=O)C1)C2(C)C;C[C@@H]1CCC(=C(C)C)C(=O)C1","[M+H]+;[M+H]+","0;2.127;2.126","C10H16O;C10H16O","0.0372396369183772;0.0372396369183772","STD;STD"
154.049962361654,1.550015,6470.88671875,4592.70556640625,2842.45825195312,2976.03149414062,4438.728515625,4029.65600585938,1530153.875,54389.6796875,3855.42431640625,3581.82275390625,4487.880859375,282618.09375,3514.06079101562,7,"736;737","NC1=CC(C(O)=O)=C(O)C=C1;NC1=CC(O)=C(C=C1)C(O)=O","[M+H]+;[M+H]+","0;0.205;0.205","C7H7NO3;C7H7NO3","0.546976141375104;0.546976141375104","STD;STD"
154.086095174154,0.550485,4743.2314453125,3623.0546875,4456.34619140625,3218.75317382812,4004.27197265625,1898028.25,5466.2509765625,4454.5185546875,4553.18359375,5144.47412109375,3587.5927734375,5499.19482421875,5207.80908203125,6,"728;782","NC[C@H](O)C1=CC=C(O)C=C1;NCCC1=CC(O)=C(O)C=C1","[M+H]+;[M+H]+","0;-0.794;0.05","C8H11NO2;C8H11NO2","-1.0930632372278;-1.0930632372278","STD;STD"
155.070449829102,2.87501666666667,31766.279296875,85228.3125,58929.66796875,22596.99609375,14157385,22044.43359375,20149.65625,23499.0625,18868.51953125,24785.98828125,3772908.5,24569.80078125,18954.005859375,5,"609;625","COC1=CC(OC)=CC(O)=C1;COC1=CC=CC(OC)=C1O","[M+H]+;[M+H]+","0;1.215;0.947","C8H10O3;C8H10O3","1.10033279832123;1.10033279832123","STD;STD"
155.143061319987,4.49196666666667,12734.373046875,11086.609375,139392.859375,18549.201171875,10972.9873046875,8286.1064453125,18015.134765625,13730.1708984375,9901.01953125,10184.3857421875,870584.25,10410.259765625,8650.5673828125,11,"102;110;202;206;211;223;280;281;310;340","C[C@@H]1CC[C@H]([C@H](O)C1)C(C)=C;C[C@H](CCC=C(C)C)CC=O;CC(C)[C@@H]1CC[C@@H](C)CC1=O;CC(C)=CCC\C(C)=C/CO;CC(C)=CCCC(C)(O)C=C;CC(C)C1(O)CCC(C)=CC1;CC1(C)[C@@H]2CC[C@@]1(C)[C@H](O)C2;CC1(C)C2CCC(C)(C2)C1O;CC1=CC[C@@H](CC1)C(C)(C)O;CC12CCC(CC1)C(C)(C)O2","[M+H]+;[M+H]+;[M+H]+;[M+H]+;[M+H]+;[M+H]+;[M+H]+;[M+H]+;[M+H]+;[M+H]+","0;2.395;3.591;2.798;2.524;2.468;1.947;2.734;2.312;2.369;2.595","C10H18O;C10H18O;C10H18O;C10H18O;C10H18O;C10H18O;C10H18O;C10H18O;C10H18O;C10H18O","0.0716756965785483;0.0716756965785483;0.0716756965785483;0.0716756965785483;0.0716756965785483;0.0716756965785483;0.0716756965785483;0.0716756965785483;0.0716756965785483;0.0716756965785483","STD;STD;STD;STD;STD;STD;STD;STD;STD;STD"
156.076955159505,0.45671,34387.046875,5870.8564453125,100,2033.71203613281,3108.15966796875,3234.798828125,100,338153.6875,100,444032.46875,2075.79858398438,190251.53125,1772.63586425781,10,"658","N[C@@H](CC1=CN=CN1)C(O)=O","[M+H]+","0;-3.429","C6H9N3O2","1.24079499619303","STD"
156.101842244466,0.601663333333333,6519.93359375,32961.08984375,30821.228515625,6012.8642578125,6869.49169921875,4939.24072265625,11042481,4695.10009765625,5081.66064453125,5099.62646484375,13643.7646484375,5008.58349609375,3991.09057617188,7,"572","COC(=O)C1=CCCN(C)C1","[M+H]+","0;0.172","C8H13NO2","-0.457749459880835","STD"
157.013056437174,3.44551666666667,6798.3291015625,2190.40991210938,205114.578125,1799.03955078125,21353.365234375,4124.50390625,58511.15625,100,1883.68981933594,2173.04443359375,4619.28662109375,23393.49609375,1211.89489746094,3,"893","OC(=O)C1=CC=C(O1)C(O)=O","[M+H]+","0;-0.0350000000000001","C6H4O5","-0.648116967588233","STD"
157.076187133789,3.06935,100,8292.865234375,14793.68359375,1099.48999023438,1135237.625,1771.00305175781,12869.3154296875,275153.71875,100,989.716735839844,8445.41015625,1408.3681640625,1103.88732910156,5,"646","N#CCC1=CNC2=C1C=CC=C2","[M+H]+","0;0.916","C10H8N2","0.979357799566824","STD"
158.081202189128,0.537141666666667,7915.00537109375,9463455,6668.40478515625,9846.39453125,7167.1591796875,8157.75830078125,8483.703125,6794.53271484375,7900.0703125,6834.81689453125,8433.005859375,570401.3125,8251.572265625,2,"66","[H][C@]1(CCCN1C(C)=O)C(O)=O","[M+H]+","0;-0.157","C7H11NO3","0.151751933019675","STD"
158.117523193359,0.60916,8517051,5263.86572265625,8108.17333984375,6029.79052734375,18191.021484375,8386.6982421875,199864.09375,8102.0673828125,6097.41015625,7868.814453125,18102.349609375,5414.5322265625,5343.4931640625,1,"729","NC[C@H]1CC[C@@H](CC1)C(O)=O","[M+H]+","0;0.298","C8H15NO2","-0.256180593937713","STD"
159.040064493815,0.51114,100,100,100,100,100,2862.412109375,142360.75,100,100,100,100,41548.19140625,100,7,"910","OC(=O)C1CC(=O)NC(=O)N1","[M+H]+","0;-1.675","C5H6N2O4","0.143321213361553","STD"
159.051300048828,0.491516666666667,100,100,13558.875,100,2860.99194335938,1867.072265625,2252.78881835938,100,12313.06640625,100,240112.078125,100,100,11,"705","NC(=O)NC1NC(=O)NC1=O","[M+H]+","0;-1.169","C4H6N4O3","0.156860258304319","STD"
160.096969604492,1.81908333333333,2933.11157226562,450356.9375,2307.85546875,2339.78247070312,1719.73620605469,3033.42797851562,98775.84375,2592.7138671875,3875.94189453125,2305.7802734375,2184.4580078125,2698.84643554688,2241.037109375,2,"233","CC(C)CC(=O)NCC(O)=O","[M+H]+","0;0.422","C7H13NO3","0.882618155328604","STD"
160.133422851562,1.60890833333333,100,1695.48327636719,1567.02734375,11625.6953125,2306.84741210938,1453.39013671875,1767.943359375,12445.193359375,7529763,32071.5859375,3641.42504882812,7577048.5,1164.86657714844,12,"412","CCCCCCC(N)C(O)=O","[M+H]+","0;-0.19","C8H17NO2","1.30548362901886","STD"
161.0595703125,3.44483333333333,16913.615234375,32946.71875,34585.7265625,94736.453125,159757.875,282363.25,30728.60546875,24476.548828125,36540.66015625,41422.7734375,83473560,59000.73828125,29256.51953125,11,"325","CC1=CC2=C(OC(=O)C=C2)C=C1","[M+H]+","0;1.414","C10H8O2","-0.895243292331904","STD"
161.080800374349,2.40945,7585.22216796875,3588.12036132812,5385.75048828125,969469.1875,8167.99951171875,5261.720703125,3391.84594726562,5985.30859375,7122.8125,5607.56640625,22250.251953125,5801.31396484375,5474.75537109375,4,"98;190;580;942","C[C@@H](CCC(O)=O)CC(O)=O;CC(C)(CC(O)=O)CC(O)=O;COC(=O)CCCCC(O)=O;OC(=O)CCCCCC(O)=O","[M+H]+;[M+H]+;[M+H]+;[M+H]+","0;0.514;0.762;0.327;0.575","C7H12O4;C7H12O4;C7H12O4;C7H12O4","-0.270210049226033;-0.270210049226033;-0.270210049226033;-0.270210049226033","STD;STD;STD;STD"
161.107442220052,1.87861666666667,100,1711.27734375,231654.953125,100,554005.0625,100,100,100,100,10438.1220703125,100,100,100,5,"787","NCCC1=CNC2=CC=CC=C12","[M+H]+","0;0.658","C10H12N2","0.675450187257231","STD"
162.05507405599,2.82148333333333,54462.828125,410222.1875,3779.45556640625,4450.99169921875,4488.54541015625,544620.75,46738.20703125,4715.9296875,146275.78125,2050808.75,42585.91015625,5794.85302734375,3428.265625,10,"903;906","OC(=O)C1=CC2=C(N1)C=CC=C2;OC(=O)C1=CNC2=CC=CC=C12","[M+H]+;[M+H]+","0;1.051;1.385","C9H7NO2;C9H7NO2","0.68221245552132;0.68221245552132","STD;STD"
162.05815633138,0.53605,100,353101.625,100,100,100,2401259.5,100,100,27894.29296875,100,1328.12023925781,100,1229.66271972656,6,"718","NC(CSCC=C)C(O)=O","[M+H]+","0;-1.861","C6H11NO2S","-1.09817749397287","STD"
162.076354980469,0.45972,13131.35546875,46184.265625,6715.63623046875,5066.34912109375,15668.115234375,1782970.625,4387.82958984375,9102.298828125,4824563.5,12801.791015625,6569.66162109375,3896381,4972.41162109375,9,"712","NC(CCCC(O)=O)C(O)=O","[M+H]+","0;-2.991","C6H11NO4","1.61763552145248","STD"
162.091567993164,2.91976666666667,4921.54736328125,10686.693359375,3034.82373046875,4161.08642578125,1311041.625,38852.421875,339484.28125,3237.44848632812,7940.6728515625,193687.625,8164813,24129.88671875,2853.7548828125,11,"1073","OCCC1=CNC2=CC=CC=C12","[M+H]+","0;0.725","C10H11NO","1.35104599643812","STD"
162.112503051758,0.475863333333333,100,100,100,100,100,100,100,100,19620608,2985.57421875,1781.19714355469,100,2854.46118164062,9,"117","C[N+](C)(C)C[C@H](O)CC([O-])=O","[M+H]+","0;-1.741","C7H15NO3","0.152065741735305","STD"
163.111643473307,5.05001666666667,68744.03125,72074.84375,78035.640625,538455.75,73105.9765625,1389280.875,78514.375,9592553,92647.5625,75337.8125,67001.703125,68269.59375,78191.453125,8,"384","CCCCC(=O)C1=CC=CC=C1","[M+H]+","0;2.635","C11H14O","-0.653703749960779","STD"
163.122884114583,0.588843333333333,5083.55810546875,4479.15673828125,25187102,20813.0546875,4459.6806640625,222621.015625,2479.85595703125,13618.37890625,1778.51452636719,2514.86743164062,2046.76623535156,2075.36181640625,2159.02124023438,3,"556","CN1CCC[C@H]1C1=CN=CC=C1","[M+H]+","0;0.274","C10H14N2","-0.609267164110006","STD"
165.054595947266,4.17718333333333,31613254,925866,909041.3125,601114.5625,432134.5625,667868.5625,345674.9375,457526.40625,837628.9375,1077829,842030.4375,828454.6875,157501.8125,1,"865;866;874","OC(=O)\C=C\C1=CC=C(O)C=C1;OC(=O)\C=C\C1=CC=CC(O)=C1;OC(=O)C(=O)CC1=CC=CC=C1","[M+H]+;[M+H]+;[M+H]+","0;0.751;0.751;0.907","C9H8O3;C9H8O3;C9H8O3","-0.200859199460036;-0.200859199460036;-0.200859199460036","STD;STD;STD"
165.076034545898,3.12246666666667,100,153734.765625,3106.28686523438,100,4291.22705078125,100,100,100,4185.375,5368.32421875,200762.421875,4529.04931640625,100,11,"106;107;967","C[C@@H]1OC(O)[C@@H](O)[C@H](O)[C@@H]1O;C[C@@H]1OC(O)[C@H](O)[C@H](O)[C@H]1O;OC[C@@H](O)[C@@H](O)[C@H](O)CC=O","[M+H]+;[M+H]+;[M+H]+","0;-0.994;-0.994;-2.561","C6H12O5;C6H12O5;C6H12O5","1.67223485080838;1.67223485080838;1.67223485080838","STD;STD;STD"
165.127538045247,3.94121666666667,147058.109375,222774.859375,600128.5,148324.140625,51700.24609375,41694.80859375,42156.75390625,97770.6328125,42191.171875,58686.6015625,38802.2109375,5438542.5,37013.23046875,12,"196","CC(C)(O)CCC1=CC=CC=C1","[M+H]+","0;2.619","C11H16O","0.835386081860786","STD"
166.072296142578,0.538853333333333,14233.1845703125,1817.77026367188,2035.87414550781,1685.75744628906,4890.91552734375,3270.66870117188,4055.89111328125,3790.35205078125,3226.41479492188,2853795.5,6777607.5,19768.681640625,2505.42993164062,11,"550","CN1C=NC2=C1C(=O)N=C(N)N2","[M+H]+","0;0.106","C6H7N5O","-0.293591544860073","STD"
166.086390177409,3.10191666666667,14276.4853515625,20167.09765625,10927.1484375,7714.31640625,3677007.25,29534.455078125,29732.654296875,484115.8125,18594.29296875,14069.3193359375,10371.302734375,11464.58203125,11568.384765625,5,"508;657","CCOC(=O)C1=CC=C(N)C=C1;N[C@@H](CC1=CC=CC=C1)C(O)=O","[M+H]+;[M+H]+","0;0.601;-1.575","C9H11NO2;C9H11NO2","0.762117888481868;0.762117888481868","STD;STD"
167.056437174479,0.919735,39499.59765625,2305.36962890625,2008.67944335938,1710.70068359375,100,100,100,100,5075323.5,22801.16015625,34019.2734375,100,1701.27954101562,9,"553","CN1C2=C(NC=N2)C(=O)NC1=O","[M+H]+","0;-0.512","C6H6N4O2","0.45897350797737","STD"
168.043746948242,0.488623333333333,100,100,100,100,100,100,100,100,100,100,100,927845.0625,100,12,"723","NC(N)=NCCS(O)(=O)=O","[M+H]+","0;-1.956","C3H9N3O3S","0.00028707990201911","STD"
168.065490722656,0.535813333333333,8819.2861328125,6411.84375,5749.08984375,5697.53271484375,7217.46728515625,952118.1875,16302.654296875,6869.86328125,53262.2890625,184459.703125,10391.595703125,3792324.5,5987.25244140625,12,"336","CC1=NC=C(CO)C(C=O)=C1O","[M+H]+","0;-0.754","C8H9NO3","-0.222992500347611","STD"
168.101694742839,0.529176666666667,5822.19580078125,5818.7373046875,3238.38793945312,4151.640625,897051.625,674696,3889.17797851562,12952.0791015625,5708.62255859375,3291.03466796875,4626.017578125,24285.8125,3612.70092773438,5,"564;594","CNCC(O)C1=CC=C(O)C=C1;COC1=C(O)C=CC(CCN)=C1","[M+H]+;[M+H]+","0;-0.404;-0.0580000000000001","C9H13NO2;C9H13NO2","-1.30252798066686;-1.30252798066686","STD;STD"
169.049397786458,3.23861666666667,438493.65625,8664.7060546875,16144.5771484375,20800.138671875,7739512.5,230084.484375,92110.53125,12635.3740234375,9410.0732421875,9562.3388671875,859577.9375,8984.4677734375,9023.361328125,5,"149;589;604;919;920;959","CC(=O)C1=C(O)C=C(C)OC1=O;COC1=C(O)C=CC(=C1)C(O)=O;COC1=CC(C(O)=O)=C(O)C=C1;OC(=O)CC1=C(O)C=CC(O)=C1;OC(=O)CC1=CC(O)=C(O)C=C1;OC(C(O)=O)C1=CC=C(O)C=C1","[M+H]+;[M+H]+;[M+H]+;[M+H]+;[M+H]+;[M+H]+","0;0.797;0.24;0.937;0.036;0.197;-0.873999999999999","C8H8O4;C8H8O4;C8H8O4;C8H8O4;C8H8O4;C8H8O4","-0.863141448000446;-0.863141448000446;-0.863141448000446;-0.863141448000446;-0.863141448000446;-0.863141448000446","STD;STD;STD;STD;STD;STD"
169.08588663737,3.22801666666667,131238.921875,98287.578125,1860675.125,136660.5625,8807864,84232.6171875,88595.1171875,82900.265625,91667.1015625,80287.3671875,38356324,94883.4375,73824.3984375,11,"605;610","COC1=CC(C)=CC(OC)=C1O;COC1=CC(OC)=CC(OC)=C1","[M+H]+;[M+H]+","0;1.339;1.536","C9H12O3;C9H12O3","-0.252313370716604;-0.252313370716604","STD;STD"
169.08598836263,3.77895,131238.921875,98287.578125,1860675.125,136660.5625,8807864,84232.6171875,88595.1171875,82900.265625,91667.1015625,80287.3671875,251249.078125,94883.4375,73824.3984375,5,"605;610","COC1=CC(C)=CC(OC)=C1O;COC1=CC(OC)=CC(OC)=C1","[M+H]+;[M+H]+","0;1.339;1.536","C9H12O3;C9H12O3","0.349305288715693;0.349305288715693","STD;STD"
170.012054443359,0.473805,115407.2890625,100,46781.86328125,100,11348.6181640625,100,11599.3818359375,100,37535.6484375,100,40485.890625,11660.01171875,1079.73986816406,1,"716","NC(CS(O)(=O)=O)C(O)=O","[M+H]+","0;-4.359","C3H7NO5S","1.62602210716243","STD"
170.081064860026,0.571388333333333,9778.279296875,5791.353515625,31620.865234375,3926.9541015625,5103.0625,17909.29296875,4765.21875,7563.71533203125,4375.94384765625,20720328,27127.796875,13608.7197265625,6121.44775390625,10,"298;727","CC1=C(O)C(CO)=C(CO)C=N1;NC[C@H](O)C1=CC(O)=C(O)C=C1","[M+H]+;[M+H]+","0;-0.855;-0.714","C8H11NO3;C8H11NO3","-0.666387960798742;-0.666387960798742","STD;STD"
171.028879801432,3.03295,19610.46875,11219.7900390625,91194.171875,5835.658203125,14986.87890625,5781468,136565.0625,43791.80859375,23666.58203125,19660.162109375,12400.8720703125,12174.154296875,23058.046875,6,"880;887","OC(=O)C1=C(O)C(O)=C(O)C=C1;OC(=O)C1=CC(O)=C(O)C(O)=C1","[M+H]+;[M+H]+","0;1.125;0.696","C7H6O5;C7H6O5","0.418066422866336;0.418066422866336","STD;STD"
171.137624104818,8.62293333333333,84343.4921875,54785.5,113875.8828125,5934726,61150.8046875,110482.6015625,1389225.5,55662.11328125,115426.7578125,114052.4609375,1798919.125,110991.890625,55930.09765625,4,"194;278;408","CC(C)(O)[C@@H]1CC[C@](C)(O1)C=C;CC\C=C/CCOC(=O)C(C)C;CCCCCC1CCCC(=O)O1","[M+H]+;[M+H]+;[M+H]+","0;1.559;2.759;3.102","C10H18O2;C10H18O2;C10H18O2","-1.99076727736437;-1.99076727736437;-1.99076727736437","STD;STD;STD"
173.060099283854,3.7875,592296.125,13732.9951171875,13914.5537109375,205773.015625,111704.625,7015.07421875,83817.8203125,23051.14453125,12304.294921875,594047.625,24455.240234375,20504.533203125,5769.42919921875,10,"306","CC1=CC(=O)C2=CC=CC=C2C1=O","[M+H]+","0;0.673","C11H8O2","2.22341172570006","STD"
173.059804280599,3.236,26922.46484375,5948.2783203125,27624.494140625,205773.015625,111704.625,10165.0146484375,3434577.25,11188.28515625,13594.6455078125,594047.625,52782.92578125,20504.533203125,11154.7197265625,7,"306","CC1=CC(=O)C2=CC=CC=C2C1=O","[M+H]+","0;0.673","C11H8O2","0.518783661990825","STD"
173.092030843099,0.526425,100,2289.255859375,2116.09106445312,1944.47595214844,2395.3046875,19905.8671875,25627370,100,610870.4375,2355.55810546875,30356.22265625,1421.31420898438,1845.10571289062,7,"770","NCC(=O)N1CCCC1C(O)=O","[M+H]+","0;-3.427","C7H12N2O3","-0.268394222317344","STD"
174.055119832357,1.00394333333333,2771290.75,4589.28125,5325.5869140625,5186.8916015625,18279.4453125,9046.7509765625,34131132,9620.025390625,5981.6611328125,26004.08984375,633031.5625,92278.2890625,5890.47021484375,7,"908","OC(=O)C1=NC2=C(C=CC=C2)C=C1","[M+H]+","0;0.407","C10H7NO2","0.898177296760757","STD"