"mz","rt","H2O_Mix1_150_450.mzXML","H2O_Mix10_150_450.mzXML","H2O_Mix11_150_450.mzXML","H2O_Mix12_150_450.mzXML","H2O_Mix2_150_450.mzXML","H2O_Mix3_150_450.mzXML","H2O_Mix4_150_450.mzXML","H2O_Mix5_150_450.mzXML","H2O_Mix6_150_450.mzXML","H2O_Mix7_150_450.mzXML","H2O_Mix8_150_450.mzXML","H2O_Mix9_150_450.mzXML","MeOH_2.mzXML","SampleID","ID","SMILES","Adducts","LOGP","formula","mserror","db"
174.112609863281,2.65355,4233.30322265625,5330874,3833.95922851562,3660.72192382812,5286.08544921875,5574.66748046875,3391.90454101562,58355.67578125,4182.396484375,3731.87133789062,5768.8515625,4589.98046875,3612.04345703125,2,"221","CC(C)C[C@H](NC(C)=O)C(O)=O","[M+H]+","0;1.053","C8H15NO3","0.755047443761336","STD"
175.071278889974,0.509273333333333,100,100,100,100,100,100,100,100,207513.046875,100,5265.8642578125,98948.1875,1804.53454589844,9,"154","CC(=O)N[C@@H](CC(N)=O)C(O)=O","[M+H]+","0;-1.993","C6H10N2O4","-0.359339501062971","STD"
175.086664835612,2.3583,100,48597.87109375,22577.248046875,2182.18041992188,507517.25,186401.84375,2657.705078125,100,6220.55224609375,2164.07788085938,11451.259765625,16351370,1807.81469726562,12,"701","NC(=O)CC1=CNC2=CC=CC=C12","[M+H]+","0;0.0769999999999997","C10H10N2O","0.381728740150431","STD"
175.107737223307,0.537141666666667,100,53991204,1875.02673339844,100,100,100,7675995,100,100,100,13374.1064453125,100,100,2,"215;497","CC(C)C(NC(=O)CN)C(O)=O;CCN=C(O)CCC(N)C(O)=O","[M+H]+;[M+H]+","0;-2.997;-2.718","C7H14N2O3;C7H14N2O3","0.0566697232110545;0.0566697232110545","STD;STD"
175.119094848633,0.45972,100,134650.234375,1768.10131835938,2084.49951171875,3489.1279296875,2346.92651367188,100,3010094.5,6742912.5,4012.37158203125,2139.97631835938,527672.75,4097.0791015625,9,"667;680","N[C@@H](CCCNC(N)=N)C(O)=O;N[C@H](CCCNC(N)=N)C(O)=O","[M+H]+;[M+H]+","0;-2.924;-2.924","C6H14N4O2;C6H14N4O2","0.766042293223631;0.766042293223631","STD;STD"
175.122924804688,1.72805,3939.41845703125,1540.10363769531,2359.5068359375,100,100,100,136649.375,100,1698.49951171875,8896.896484375,1615.24279785156,100,100,7,"524","CN(C)CC1=CNC2=CC=CC=C12","[M+H]+","0;1.129","C11H14N2","-0.335166352786508","STD"
176.070500691732,2.94966666666667,27477.064453125,10798.119140625,4150.53515625,4174.1953125,46036.359375,36649.29296875,97075.40625,67425.4375,78045.3828125,475406.625,73266.7578125,25314622,4079.13256835938,12,"926","OC(=O)CC1=CNC2=C1C=CC=C2","[M+H]+","0;0.805","C10H9NO2","-0.640699421882472","STD"
176.091715494792,0.535813333333333,100,5200.34765625,100,1513.03979492188,44430.40234375,18914.220703125,100,100,1511.64587402344,1875.10412597656,27519.306640625,1827269.625,1735.03295898438,12,"713","NC(CCCCC(O)=O)C(O)=O","[M+H]+","0;-2.633","C7H13NO4","-0.155630308412736","STD"
177.050567626953,0.535813333333333,100,100,100,3727.31469726562,100,100,100,100,2625.8955078125,100,2685.076171875,218312.03125,1990.7265625,12,"703","NC(=O)N[C@@H](CC(O)=O)C(O)=O","[M+H]+","0;-2.143","C5H8N2O5","-0.21899419756038","STD"
177.102254231771,0.650186666666667,100,153288.9375,457900.28125,1491.25744628906,3547632,22407.373046875,749554.6875,128290.25,100,11962.8125,16292.962890625,1306.32824707031,1638.92895507812,5,"542;786","CN1C(CCC1=O)C1=CN=CC=C1;NCCC1=CNC2=CC=C(O)C=C12","[M+H]+;[M+H]+","0;-0.465;0.366","C10H12N2O;C10H12N2O","0.0351874177625211;0.0351874177625211","STD;STD"
179.034006754557,2.15996666666667,10833.552734375,42276.75,14016.8134765625,38253.453125,1742944.25,10854.912109375,7708.8291015625,24230.341796875,10190.8759765625,5992.24267578125,233101.359375,12220685,4221.7001953125,12,"1012","OC1=C(O)C=C2C=CC(=O)OC2=C1","[M+H]+","0;0.81","C9H6O4","0.631469736115198","STD"
180.065602620443,2.02925,4767.67236328125,4154.45263671875,2903.705078125,2624.32568359375,21591.0078125,516417.71875,3956.23999023438,68524.8173828125,3608.04638671875,3281.94409179688,3460.52392578125,5954.45751953125,2673.41528320312,6,"953","OC(=O)CNC(=O)C1=CC=CC=C1","[M+H]+","0;0.154","C9H9NO3","0.413296276059431","STD"
180.086664835612,0.472515,100,100,100,100,100,282658.65625,100,100,1863285.375,10058.595703125,151229.09375,1967765,100,12,"685","N[C@H]1C(O)O[C@H](CO)[C@@H](O)[C@@H]1O","[M+H]+","0;-1.764","C6H13NO5","0.0407337878107169","STD"
180.174428304036,3.46338333333333,31021.91015625,19347.900390625,14377.533203125,14469.58203125,4443.62353515625,15901.7373046875,83130656,6223.35791015625,14081.443359375,16439.2734375,13315.22265625,20849.6953125,17375.43359375,7,"339","CC12CC3CC(C)(C1)CC(N)(C3)C2","[M+H]+","0;3.524","C12H21N","-1.42304302782928","STD"
181.072092692057,1.83358333333333,20504.607421875,30455.890625,29736.044921875,28066.431640625,22910.306640625,12235213,23713.302734375,84752.6953125,26777.126953125,43142.40234375,3761730.5,9231014,44850.94140625,6,"551;552","CN1C=NC2=C1C(=O)NC(=O)N2C;CN1C2=C(NC=N2)C(=O)N(C)C1=O","[M+H]+;[M+H]+","0;-0.637;-0.37","C7H8N4O2;C7H8N4O2","0.453918965464876;0.453918965464876","STD;STD"
181.085840861003,4.03751666666667,43743.15234375,55986.43359375,27568.87890625,5365558,59469.59765625,210868.5,12889.337890625,47213.00390625,36868.5546875,37275.2421875,919339.6875,38622.81640625,41894.98046875,4,"490;623","CCCOC(=O)C1=CC=C(O)C=C1;COC1=CC=CC(CCC(O)=O)=C1","[M+H]+;[M+H]+","0;1.37;0.818","C10H12O3;C10H12O3","-0.488381623845089;-0.488381623845089","STD;STD"
182.081212361654,0.712746666666667,5962.31689453125,2993456.5,4629.43212890625,3231.12744140625,29616.640625,5172.80126953125,26863.9609375,832396.125,1798523,208374.515625,213724.609375,3236994.5,3714.79370117188,12,"654;656","N[C@@H](CC1=CC=C(O)C=C1)C(O)=O;N[C@@H](CC1=CC=CC(O)=C1)C(O)=O","[M+H]+;[M+H]+","0;-2.711;-2.5","C9H11NO3;C9H11NO3","0.187617676568369;0.187617676568369","STD;STD"
182.081283569336,1.79653333333333,5962.31689453125,3683.87109375,4629.43212890625,3231.12744140625,5812.28173828125,5172.80126953125,3613.826171875,13665.25390625,1798523,4957.74853515625,4801.1376953125,5172.052734375,3272.65380859375,9,"654;656","N[C@@H](CC1=CC=C(O)C=C1)C(O)=O;N[C@@H](CC1=CC=CC(O)=C1)C(O)=O","[M+H]+;[M+H]+","0;-2.711;-2.5","C9H11NO3;C9H11NO3","0.578693943399716;0.578693943399716","STD;STD"
183.065282185872,2.50458333333333,10706806,14363.1689453125,11795.6083984375,14101.52734375,73745.96875,8870.486328125,3047541,11791.591796875,17544.51171875,12065.1318359375,23609.703125,11692.55078125,8660.7783203125,1,"607;613;624","COC1=CC(CC(O)=O)=CC=C1O;COC1=CC=C(C=C1)C(O)C(O)=O;COC1=CC=CC(OC)=C1C(O)=O","[M+H]+;[M+H]+;[M+H]+","0;0.0890000000000001;-0.553;0.829","C9H10O4;C9H10O4;C9H10O4","0.482810672482942;0.482810672482942;0.482810672482942","STD;STD;STD"
183.086400349935,0.474176666666667,100,391685.8125,100,100,21411.38671875,100,100,15013.375,100,100,141471.046875,61762.21875,100,2,"965;976;977","OC[C@@H](O)[C@@H](O)[C@H](O)[C@H](O)CO;OC[C@H](O)[C@@H](O)[C@@H](O)[C@H](O)CO;OC[C@H](O)[C@@H](O)[C@H](O)[C@H](O)CO","[M+H]+;[M+H]+;[M+H]+","0;-3.896;-3.896;-3.896","C6H14O6;C6H14O6;C6H14O6","0.42138539416104;0.42138539416104;0.42138539416104","STD;STD;STD"
184.096837361654,0.505835,3861.47387695312,4137.37646484375,3080.56665039062,4653.04345703125,3313.939453125,4348.072265625,8995.5400390625,2926.37768554688,92791.4453125,3395.2509765625,3903.41674804688,2528406.75,3836.30615234375,12,"561","CNC[C@H](O)C1=CC(O)=C(O)C=C1","[M+H]+","0;-0.324","C9H13NO3","0.0492222143720728","STD"
185.153559366862,8.00078333333333,58551.78515625,969003.25,11321287,249292.015625,47804.19140625,42816.5,823739.875,52164.79296875,39889.10546875,41627.78515625,34974.953125,37642.68359375,47066.7265625,3,"416","CCCCCCC1CCCC(=O)O1","[M+H]+","0;3.671","C11H20O2","-0.299930167174597","STD"
188.070592244466,1.76121666666667,10249.845703125,6025.07275390625,3290.16040039062,3664.3291015625,855587,16397.802734375,13320786,5239.1826171875,2992.14331054688,77754.1640625,10611674,6548437.5,2745.06811523438,7,"868","OC(=O)\C=C\C1=CC2=C(N1)C=CC=C2","[M+H]+","0;1.323","C11H9NO2","-0.11301891350777","STD"
189.086822509766,0.523391666666667,100,2232.27416992188,1946.57507324219,100,100,100,100,3022.57470703125,1113817,100,8326.9384765625,1532.24694824219,100,9,"164","CC(=O)NC(CCC(N)=O)C(O)=O","[M+H]+","0;-1.635","C7H12N2O4","-0.895833097981035","STD"
189.111928304036,4.24976666666667,23412.333984375,8786.6279296875,3770.92309570312,7562669,8884.0732421875,4463.5830078125,5788.08740234375,4101.32861328125,394856.53125,3372.24609375,230232.21875,21789.96484375,3926.76806640625,4,"944","OC(=O)CCCCCCCC(O)=O","[M+H]+","0;1.713","C9H16O4","-1.1405730242719","STD"
189.123112996419,3.90176666666667,4642.5791015625,2145.03881835938,2194.77197265625,4260.0986328125,4473.12890625,2516.35717773438,100,1557337.875,3857.28149414062,3911.45141601562,2722.1962890625,3146.80688476562,3597.20751953125,8,"166;220","CC(=O)NC(CCCCN)C(O)=O;CC(C)C[C@H](NC(=O)CN)C(O)=O","[M+H]+;[M+H]+","0;-2.673;-2.217","C8H16N2O3;C8H16N2O3","-1.39805006817196;-1.39805006817196","STD;STD"
189.123560587565,1.487335,100,108606.3515625,100,100,100,100,100,100,48265.26171875,5903840.5,100,100,1750.15673828125,10,"166;220","CC(=O)NC(CCCCN)C(O)=O;CC(C)C[C@H](NC(=O)CN)C(O)=O","[M+H]+;[M+H]+","0;-2.673;-2.217","C8H16N2O3;C8H16N2O3","0.968613135384498;0.968613135384498","STD;STD"
189.134618123372,0.472515,100,127476.90625,58900.1953125,16593.185546875,100,100,100,100,4708748.5,100,9442.64453125,40353212,2986.005859375,12,"558;665","CNC(=N)NCCC[C@H](N)C(O)=O;N[C@@H](CCCCNC(N)=N)C(O)=O","[M+H]+;[M+H]+","0;-2.461;-2.566","C7H16N4O2;C7H16N4O2","0.0387204208617168;0.0387204208617168","STD;STD"
190.050059000651,2.05218333333333,295823.75,2558.21801757812,2336.0966796875,11044.0615234375,3358.23999023438,26792.759765625,6566.4638671875,4169.71337890625,3552230.5,2857.6162109375,34056.58984375,9765.068359375,2510.65307617188,9,"885","OC(=O)C1=CC(=O)C2=CC=CC=C2N1","[M+H]+","0;0.665","C10H7NO3","0.951857904965666","STD"
190.070912679036,0.601285,5150.17578125,2173361.25,3014.09106445312,2588.0400390625,3421.09545898438,4310.77490234375,2577.951171875,3301.04443359375,83411.6796875,2671.3515625,2703.01782226562,6094.51220703125,2990.88037109375,2,"165","CC(=O)NC(CCC(O)=O)C(O)=O","[M+H]+","0;-0.907","C7H11NO5","-0.498871514120082","STD"
190.086074829102,3.44716666666667,5687.03466796875,40433.515625,2443.64868164062,2729.45703125,480881.96875,4769.12548828125,8914057,6751.2333984375,3285.7314453125,5115933,460417.21875,30742.81640625,2656.56762695312,7,"576;936","COC(=O)CC1=CNC2=C1C=CC=C2;OC(=O)CCC1=CNC2=CC=CC=C12","[M+H]+;[M+H]+","0;1.126;0.974","C11H11NO2;C11H11NO2","-0.993081151158014;-0.993081151158014","STD;STD"
190.118616739909,0.493588333333333,100,100,100,100,100,100,100,100,2262559.75,12458.15625,100,100,100,9,"666","N[C@@H](CCCCNC(N)=O)C(O)=O","[M+H]+","0;-3.551","C7H15N3O3","-0.050810863055979","STD"
191.066116333008,0.580883333333333,180486.796875,11274.611328125,2332.32104492188,2273.42724609375,7403.88037109375,4101.14013671875,100,100,2111.03662109375,9144.5810546875,118676.6953125,6602.42822265625,100,1,"930","OC(=O)CCC(NC(O)=N)C(O)=O","[M+H]+","0;-0.389","C6H10N2O5","-0.733081273994904","STD"
191.10275777181,0.454558333333333,100,100,100,100,100,429347.9375,100,100,100,2148.1630859375,100,100,100,6,"664","N[C@@H](CCC[C@H](N)C(O)=O)C(O)=O","[M+H]+","0;-3.464","C7H14N2O4","0.606332484829911","STD"
191.117838541667,1.95603333333333,100,2323.20825195312,35503.98046875,1380.98889160156,2210.82495117188,51185.23046875,10847.45703125,1900827.5,374330.40625,828046.75,5120239.5,7129.51708984375,17918.8828125,11,"633","COC1=CC2=C(NC=C2CCN)C=C1","[M+H]+","0;0.687","C11H14N2O","-0.311631470149499","STD"
192.065638224284,1.886,16088.38671875,3927.03198242188,2870.65405273438,4853.80908203125,100,1949880.375,6471.60986328125,83266.859375,3659.79296875,366122.46875,7860.21826171875,12857.78125,2909.140625,6,"927","OC(=O)CC1=CNC2=CC=C(O)C=C12","[M+H]+","0;0.513","C10H9NO3","0.572847308927393","STD"
192.069101969401,1.77545,2876.06518554688,100,100,100,100,100,100,100,100,100,100,1011093.625,100,12,"641","CSCCC(NC(C)=O)C(O)=O","[M+H]+","0;0.589","C7H13NO3S","1.0567519654697","STD"
193.049647013346,2.96303333333333,10624.984375,12381.4033203125,12302.8251953125,14558.3349609375,9933.02734375,20749.947265625,17509.599609375,12417.1279296875,38945864,28131.73828125,14236.87109375,21761.91796875,29736.59765625,9,"308","CC1=CC(=O)OC2=CC(O)=CC(O)=C12","[M+H]+","0;1.041","C10H8O4","0.535164646044323","STD"
193.15869140625,4.68503333333333,52550.546875,39189.9921875,33103.2109375,36651204,63579.61328125,48955.1484375,49734.828125,419461.28125,47332.4140625,129005.96875,39716.04296875,100611.5703125,40830.69140625,4,"132;145","C\C=C/C(=O)C1C(C)=CCCC1(C)C;CC(=O)\C=C\C1=C(C)CCCC1(C)C","[M+H]+;[M+H]+","0;3.681;3.65","C13H20O;C13H20O","-0.0460437474064181;-0.0460437474064181","STD;STD"
194.081497192383,2.28526666666667,143123.703125,3662.07153320312,3170.72314453125,5375.8916015625,44731.2734375,21673.541015625,2647.98779296875,4590.61083984375,5277.14697265625,1875490.25,5083.3251953125,58662.37109375,3296.35302734375,10,"311;317;954","CC1=CC=C(C=C1)C(=O)NCC(O)=O;CC1=CC=CC=C1C(=O)NCC(O)=O;OC(=O)CNC(=O)CC1=CC=CC=C1","[M+H]+;[M+H]+;[M+H]+","0;0.546;0.546;0.425","C10H11NO3;C10H11NO3;C10H11NO3","1.64360017641934;1.64360017641934;1.64360017641934","STD;STD;STD"
195.065470377604,2.72673333333333,1932989.125,16758.57421875,71700.21875,17742.8671875,26900.201171875,25524.67578125,20634.85546875,11775.0546875,23238.30078125,21376.931640625,90796.1328125,16357.2685546875,13775.6943359375,1,"587;596","COC1=C(O)C=CC(\C=C\C(O)=O)=C1;COC1=C(OC(C)=O)C=CC(C=O)=C1","[M+H]+;[M+H]+","0;0.512;0.512","C10H10O4;C10H10O4","1.41787064335018;1.41787064335018","STD;STD"
195.087875366211,2.22766666666667,2577.68774414062,2762.33666992188,3631.142578125,6001.42822265625,21787132,5871.1494140625,6958.36376953125,3097.59814453125,5304.39892578125,2276.79248046875,78620.21875,35552.015625,6265.24267578125,5,"548","CN1C=NC2=C1C(=O)N(C)C(=O)N2C","[M+H]+","0;-0.495","C8H10N4O2","1.10086908576337","STD"
196.096384684245,3.58383333333333,4734.599609375,5119.34423828125,3339.81127929688,3104.85766601562,5582.4208984375,4286.49560546875,9993.2548828125,3388.28125,1105523.875,3557.296875,4123.57958984375,17662.662109375,3445.001953125,9,"108","C[C@](N)(CC1=CC=C(O)C=C1)C(O)=O","[M+H]+","0;-2.601","C10H13NO3","-2.26223321611603","STD"
198.002792358398,0.639703333333333,2307801.5,100,100,100,22821.8203125,100,100,100,100,100,100,100,100,1,"126","C[Se]CCC(N)C(O)=O","[M+H]+","0;-2.108","C5H11NO2Se","0.035142928697666","STD"
198.075922648112,0.556211666666667,3587.32202148438,2662.58325195312,2902.54541015625,2640.24877929688,2611.13500976562,11986.353515625,1240029.25,4627.48193359375,2345.58056640625,3074.8037109375,3670.05102539062,9287.1396484375,2865.896484375,7,"651","N[C@@H](CC1=CC(O)=C(O)C=C1)C(O)=O","[M+H]+","0;-2.631","C9H11NO4","-0.859023579084942","STD"
199.060317993164,2.35421666666667,9534.0439453125,5895.44677734375,31370.357421875,12316.494140625,6902.11962890625,8599.39453125,2528.84887695312,6440.01708984375,9192.5146484375,8454.5107421875,1881814,3704.5673828125,7052.70751953125,11,"588;603","COC1=C(O)C=CC(=C1)[C@H](O)C(O)=O;COC1=CC(=CC(OC)=C1O)C(O)=O","[M+H]+;[M+H]+","0;-0.902;0.48","C9H10O5;C9H10O5","1.05291283629311;1.05291283629311","STD;STD"
203.091283162435,3.44551666666667,13991.34765625,141195.71875,52763860,224125.953125,5327.75146484375,4152.11376953125,32394.26953125,137852.46875,5310.46142578125,102944.03125,51260.12890625,16894.40625,2311.94653320312,3,"503","CCOC(=O)C(C)C(=O)C(=O)OCC","[M+H]+","0;1.057","C9H14O5","-0.617641304216709","STD"
203.127568562826,4.32993333333333,148993.40625,24253.27734375,274486.25,4720963.5,69102.3046875,48706.0234375,45235.1953125,14374.201171875,246161.65625,17239.388671875,2613328.75,30572.798828125,32107.603515625,4,"946","OC(=O)CCCCCCCCC(O)=O","[M+H]+","0;2.282","C10H18O4","-1.11032281622196","STD"
203.143030802409,5.03421666666667,43088.328125,5178.5849609375,34947.4921875,794722.5,28313.9921875,95726.5390625,29932.8515625,5137948.5,27553.736328125,29331.095703125,516324.46875,27869.587890625,27202.646484375,8,"394","CCCCC\C(C=O)=C\C1=CC=CC=C1","[M+H]+","0;4.32","C14H18O","-0.095487356594291","STD"
204.098159790039,0.478596666666667,100,100,100,100,100,100,210094.140625,100,100,100,100,100,100,7,"772","NCC(=O)NC(CCC(N)=O)C(O)=O","[M+H]+","0;-4.905","C7H13N3O4","1.31745449967882","STD"
204.101796468099,3.5001,4322.84912109375,7086.72216796875,3115.10375976562,11939.3759765625,6193.23828125,414466.6875,15884529,4179.4091796875,2702.96997070312,43489148,20028.80859375,2936.5263671875,3660.51977539062,10,"939","OC(=O)CCCC1=CNC2=C1C=CC=C2","[M+H]+","0;1.332","C12H13NO2","-0.574379564606629","STD"
204.113118489583,1.38452666666667,100,2099.23266601562,100,100,100,100,7846947.5,100,100,38320.83203125,100,100,100,7,"710","NC(CC1=CNC2=CC=CC=C12)C(N)=O","[M+H]+","0;-0.585","C11H13N3O","-0.140169417849846","STD"
204.123006184896,0.523391666666667,4271.8603515625,2876.01440429688,2410.353515625,1981.27722167969,4335.78466796875,100,3178.31713867188,100,35203440,2733.30908203125,11529.84765625,5107.6083984375,2429.48828125,9,"174","CC(=O)OC(CC([O-])=O)C[N+](C)(C)C","[M+H]+","0;-1.001","C9H17NO4","-0.1803574456124","STD"
205.097183227539,1.76121666666667,4164.548828125,3192.966796875,2499.06909179688,3501.08959960938,835927.25,7293.15380859375,6404260,2746.69482421875,2453.34130859375,4979.46728515625,5529028,3616.88818359375,2715.83251953125,7,"660;677","N[C@@H](CC1=CNC2=C1C=CC=C2)C(O)=O;N[C@H](CC1=CNC2=C1C=CC=C2)C(O)=O","[M+H]+;[M+H]+","0;-2.023;-2.023","C11H12N2O2;C11H12N2O2","0.100574462734909;0.100574462734909","STD;STD"
206.045094807943,1.96316666666667,1246965.75,9172.0048828125,8965.869140625,9952.9091796875,53908.19921875,12068.009765625,11503.1083984375,24383.240234375,11908.83984375,10472.6103515625,14795.439453125,15603.2861328125,9183.154296875,1,"909","OC(=O)C1=NC2=C(O)C=CC=C2C(O)=C1","[M+H]+","0;0.0339999999999999","C10H7NO4","1.46622244655573","STD"
206.067036946615,3.23028333333333,11745.7822265625,20348.322265625,11707.6298828125,14089.462890625,11030.4599609375,11992.9404296875,29506.255859375,22418.529296875,15249.591796875,1047380.0625,14099.4853515625,11224.603515625,8877.154296875,10,"702","NC(=O)CCCCC1CCSS1","[M+H]+","0;1.344","C8H15NOS2","1.19595360151833","STD"
206.138854980469,1.39219166666667,6713.25732421875,1654.26916503906,2055.31567382812,100,100,100,100,100,100,1681.43627929688,13609131,2617.052734375,3730.85693359375,11,"192","CC(C)(CO)C(O)C(=O)NCCCO","[M+H]+","0;-1.234","C9H19NO4","0.785298186670223","STD"
207.086339314779,2.40945,21933.240234375,1524.78015136719,1207.31860351562,9314023,100,4076.58081054688,3728.3212890625,100,51086.83984375,3045.97314453125,100,1653732.5,100,4,"504","CCOC(=O)C(O)C(O)C(=O)OCC","[M+H]+","0;-0.75","C8H14O6","0.0778167166221603","STD"
208.09706624349,2.75566666666667,122907.296875,24708.927734375,3866.35473632812,68224.5625,3292015.25,166382.203125,50341.75,3339.17041015625,11032.8232421875,43069.015625,15024.3837890625,12031.046875,2780.08129882812,5,"157","CC(=O)N[C@@H](CC1=CC=CC=C1)C(O)=O","[M+H]+","0;0.867","C11H13NO3","1.14342549024582","STD"
209.092280069987,0.934506666666667,60524.4765625,28192.509765625,60391.8125,3337.98413085938,5140.18505859375,100,5724.2060546875,100,100,824589.3125,2732.0478515625,1716.24658203125,2096.89135742188,10,"647","N[C@@H](CC(=O)C1=CC=CC=C1N)C(O)=O","[M+H]+","0;-2.868","C10H12N2O3","0.969763144419064","STD"
209.096069335938,4.42805,11723.173828125,142854.171875,19909.42578125,65448.671875,18687.1953125,21587.658203125,37697.38671875,79321064,487319.03125,10824.7470703125,29275.90234375,13092.4560546875,27471.28125,8,"830","O=C(\C=C\C1=CC=CC=C1)C1=CC=CC=C1","[M+H]+","0;3.171","C15H12O","-0.146650590308793","STD"
209.128458658854,0.846133333333333,5702.25390625,87484.1484375,4166.34716796875,4628.11962890625,100,67582704,17638.103515625,10173.3310546875,4301.5322265625,3116.35180664062,2900.6904296875,4525.890625,3815.24438476562,6,"271","CC[C@H]1[C@@H](CC2=CN=CN2C)COC1=O","[M+H]+","0;1.077","C11H16N2O2","-0.0198019247977798","STD"